<?xml version="1.0" encoding="UTF-8"?>

<!-- generated on 2026-07-07 04:52:55 by Eclipse SUMO sumo Version 1.20.0
<configuration xmlns:xsi="http://www.w3.org/2001/XMLSchema-instance" xsi:noNamespaceSchemaLocation="http://sumo.dlr.de/xsd/sumoConfiguration.xsd">

    <input>
        <net-file value="net.net.xml"/>
        <route-files value="rou.rou.xml"/>
    </input>

    <output>
        <fcd-output value="golden.fcd.xml"/>
        <fcd-output.acceleration value="true"/>
        <save-state.times value="1"/>
        <save-state.files value="golden.state.xml"/>
    </output>

    <time>
        <begin value="0"/>
        <end value="120"/>
        <step-length value="1"/>
    </time>

    <processing>
        <step-method.ballistic value="false"/>
        <collision.action value="none"/>
        <time-to-teleport value="-1"/>
        <default.action-step-length value="1"/>
        <default.speeddev value="0"/>
    </processing>

    <report>
        <no-step-log value="true"/>
    </report>

    <random_number>
        <seed value="42"/>
    </random_number>

</configuration>
-->

<fcd-export xmlns:xsi="http://www.w3.org/2001/XMLSchema-instance" xsi:noNamespaceSchemaLocation="http://sumo.dlr.de/xsd/fcd_file.xsd">
    <timestep time="0.00">
        <vehicle id="veh0" x="100.00" y="-1.60" angle="90.00" type="leader" speed="0.00" pos="100.00" lane="e0_0" slope="0.00" acceleration="0.00"/>
        <vehicle id="veh1" x="0.00" y="-1.60" angle="90.00" type="follower" speed="0.00" pos="0.00" lane="e0_0" slope="0.00" acceleration="0.00"/>
    </timestep>
    <timestep time="1.00">
        <vehicle id="veh0" x="102.60" y="-1.60" angle="90.00" type="leader" speed="2.60" pos="102.60" lane="e0_0" slope="0.00" acceleration="2.60"/>
        <vehicle id="veh1" x="2.60" y="-1.60" angle="90.00" type="follower" speed="2.60" pos="2.60" lane="e0_0" slope="0.00" acceleration="2.60"/>
    </timestep>
    <timestep time="2.00">
        <vehicle id="veh0" x="107.60" y="-1.60" angle="90.00" type="leader" speed="5.00" pos="107.60" lane="e0_0" slope="0.00" acceleration="2.40"/>
        <vehicle id="veh1" x="7.80" y="-1.60" angle="90.00" type="follower" speed="5.20" pos="7.80" lane="e0_0" slope="0.00" acceleration="2.60"/>
    </timestep>
    <timestep time="3.00">
        <vehicle id="veh0" x="112.60" y="-1.60" angle="90.00" type="leader" speed="5.00" pos="112.60" lane="e0_0" slope="0.00" acceleration="0.00"/>
        <vehicle id="veh1" x="15.60" y="-1.60" angle="90.00" type="follower" speed="7.80" pos="15.60" lane="e0_0" slope="0.00" acceleration="2.60"/>
    </timestep>
    <timestep time="4.00">
        <vehicle id="veh0" x="117.60" y="-1.60" angle="90.00" type="leader" speed="5.00" pos="117.60" lane="e0_0" slope="0.00" acceleration="0.00"/>
        <vehicle id="veh1" x="26.00" y="-1.60" angle="90.00" type="follower" speed="10.40" pos="26.00" lane="e0_0" slope="0.00" acceleration="2.60"/>
    </timestep>
    <timestep time="5.00">
        <vehicle id="veh0" x="122.60" y="-1.60" angle="90.00" type="leader" speed="5.00" pos="122.60" lane="e0_0" slope="0.00" acceleration="0.00"/>
        <vehicle id="veh1" x="39.00" y="-1.60" angle="90.00" type="follower" speed="13.00" pos="39.00" lane="e0_0" slope="0.00" acceleration="2.60"/>
    </timestep>
    <timestep time="6.00">
        <vehicle id="veh0" x="127.60" y="-1.60" angle="90.00" type="leader" speed="5.00" pos="127.60" lane="e0_0" slope="0.00" acceleration="0.00"/>
        <vehicle id="veh1" x="52.89" y="-1.60" angle="90.00" type="follower" speed="13.89" pos="52.89" lane="e0_0" slope="0.00" acceleration="0.89"/>
    </timestep>
    <timestep time="7.00">
        <vehicle id="veh0" x="132.60" y="-1.60" angle="90.00" type="leader" speed="5.00" pos="132.60" lane="e0_0" slope="0.00" acceleration="0.00"/>
        <vehicle id="veh1" x="66.78" y="-1.60" angle="90.00" type="follower" speed="13.89" pos="66.78" lane="e0_0" slope="0.00" acceleration="0.00"/>
    </timestep>
    <timestep time="8.00">
        <vehicle id="veh0" x="137.60" y="-1.60" angle="90.00" type="leader" speed="5.00" pos="137.60" lane="e0_0" slope="0.00" acceleration="0.00"/>
        <vehicle id="veh1" x="80.67" y="-1.60" angle="90.00" type="follower" speed="13.89" pos="80.67" lane="e0_0" slope="0.00" acceleration="0.00"/>
    </timestep>
    <timestep time="9.00">
        <vehicle id="veh0" x="142.60" y="-1.60" angle="90.00" type="leader" speed="5.00" pos="142.60" lane="e0_0" slope="0.00" acceleration="0.00"/>
        <vehicle id="veh1" x="94.56" y="-1.60" angle="90.00" type="follower" speed="13.89" pos="94.56" lane="e0_0" slope="0.00" acceleration="0.00"/>
    </timestep>
    <timestep time="10.00">
        <vehicle id="veh0" x="147.60" y="-1.60" angle="90.00" type="leader" speed="5.00" pos="147.60" lane="e0_0" slope="0.00" acceleration="0.00"/>
        <vehicle id="veh1" x="108.45" y="-1.60" angle="90.00" type="follower" speed="13.89" pos="108.45" lane="e0_0" slope="0.00" acceleration="0.00"/>
    </timestep>
    <timestep time="11.00">
        <vehicle id="veh0" x="152.60" y="-1.60" angle="90.00" type="leader" speed="5.00" pos="152.60" lane="e0_0" slope="0.00" acceleration="0.00"/>
        <vehicle id="veh1" x="122.34" y="-1.60" angle="90.00" type="follower" speed="13.89" pos="122.34" lane="e0_0" slope="0.00" acceleration="0.00"/>
    </timestep>
    <timestep time="12.00">
        <vehicle id="veh0" x="157.60" y="-1.60" angle="90.00" type="leader" speed="5.00" pos="157.60" lane="e0_0" slope="0.00" acceleration="0.00"/>
        <vehicle id="veh1" x="134.59" y="-1.60" angle="90.00" type="follower" speed="12.25" pos="134.59" lane="e0_0" slope="0.00" acceleration="-1.64"/>
    </timestep>
    <timestep time="13.00">
        <vehicle id="veh0" x="162.60" y="-1.60" angle="90.00" type="leader" speed="5.00" pos="162.60" lane="e0_0" slope="0.00" acceleration="0.00"/>
        <vehicle id="veh1" x="144.43" y="-1.60" angle="90.00" type="follower" speed="9.84" pos="144.43" lane="e0_0" slope="0.00" acceleration="-2.42"/>
    </timestep>
    <timestep time="14.00">
        <vehicle id="veh0" x="167.60" y="-1.60" angle="90.00" type="leader" speed="5.00" pos="167.60" lane="e0_0" slope="0.00" acceleration="0.00"/>
        <vehicle id="veh1" x="152.26" y="-1.60" angle="90.00" type="follower" speed="7.84" pos="152.26" lane="e0_0" slope="0.00" acceleration="-2.00"/>
    </timestep>
    <timestep time="15.00">
        <vehicle id="veh0" x="172.60" y="-1.60" angle="90.00" type="leader" speed="5.00" pos="172.60" lane="e0_0" slope="0.00" acceleration="0.00"/>
        <vehicle id="veh1" x="158.68" y="-1.60" angle="90.00" type="follower" speed="6.42" pos="158.68" lane="e0_0" slope="0.00" acceleration="-1.42"/>
    </timestep>
    <timestep time="16.00">
        <vehicle id="veh0" x="177.60" y="-1.60" angle="90.00" type="leader" speed="5.00" pos="177.60" lane="e0_0" slope="0.00" acceleration="0.00"/>
        <vehicle id="veh1" x="164.39" y="-1.60" angle="90.00" type="follower" speed="5.71" pos="164.39" lane="e0_0" slope="0.00" acceleration="-0.71"/>
    </timestep>
    <timestep time="17.00">
        <vehicle id="veh0" x="182.60" y="-1.60" angle="90.00" type="leader" speed="5.00" pos="182.60" lane="e0_0" slope="0.00" acceleration="0.00"/>
        <vehicle id="veh1" x="169.74" y="-1.60" angle="90.00" type="follower" speed="5.35" pos="169.74" lane="e0_0" slope="0.00" acceleration="-0.35"/>
    </timestep>
    <timestep time="18.00">
        <vehicle id="veh0" x="187.60" y="-1.60" angle="90.00" type="leader" speed="5.00" pos="187.60" lane="e0_0" slope="0.00" acceleration="0.00"/>
        <vehicle id="veh1" x="174.92" y="-1.60" angle="90.00" type="follower" speed="5.18" pos="174.92" lane="e0_0" slope="0.00" acceleration="-0.18"/>
    </timestep>
    <timestep time="19.00">
        <vehicle id="veh0" x="192.60" y="-1.60" angle="90.00" type="leader" speed="5.00" pos="192.60" lane="e0_0" slope="0.00" acceleration="0.00"/>
        <vehicle id="veh1" x="180.01" y="-1.60" angle="90.00" type="follower" speed="5.09" pos="180.01" lane="e0_0" slope="0.00" acceleration="-0.09"/>
    </timestep>
    <timestep time="20.00">
        <vehicle id="veh0" x="197.60" y="-1.60" angle="90.00" type="leader" speed="5.00" pos="197.60" lane="e0_0" slope="0.00" acceleration="0.00"/>
        <vehicle id="veh1" x="185.05" y="-1.60" angle="90.00" type="follower" speed="5.04" pos="185.05" lane="e0_0" slope="0.00" acceleration="-0.04"/>
    </timestep>
    <timestep time="21.00">
        <vehicle id="veh0" x="202.60" y="-1.60" angle="90.00" type="leader" speed="5.00" pos="202.60" lane="e0_0" slope="0.00" acceleration="0.00"/>
        <vehicle id="veh1" x="190.08" y="-1.60" angle="90.00" type="follower" speed="5.02" pos="190.08" lane="e0_0" slope="0.00" acceleration="-0.02"/>
    </timestep>
    <timestep time="22.00">
        <vehicle id="veh0" x="207.60" y="-1.60" angle="90.00" type="leader" speed="5.00" pos="207.60" lane="e0_0" slope="0.00" acceleration="0.00"/>
        <vehicle id="veh1" x="195.09" y="-1.60" angle="90.00" type="follower" speed="5.01" pos="195.09" lane="e0_0" slope="0.00" acceleration="-0.01"/>
    </timestep>
    <timestep time="23.00">
        <vehicle id="veh0" x="212.60" y="-1.60" angle="90.00" type="leader" speed="5.00" pos="212.60" lane="e0_0" slope="0.00" acceleration="0.00"/>
        <vehicle id="veh1" x="200.09" y="-1.60" angle="90.00" type="follower" speed="5.01" pos="200.09" lane="e0_0" slope="0.00" acceleration="-0.01"/>
    </timestep>
    <timestep time="24.00">
        <vehicle id="veh0" x="217.60" y="-1.60" angle="90.00" type="leader" speed="5.00" pos="217.60" lane="e0_0" slope="0.00" acceleration="0.00"/>
        <vehicle id="veh1" x="205.10" y="-1.60" angle="90.00" type="follower" speed="5.00" pos="205.10" lane="e0_0" slope="0.00" acceleration="-0.00"/>
    </timestep>
    <timestep time="25.00">
        <vehicle id="veh0" x="222.60" y="-1.60" angle="90.00" type="leader" speed="5.00" pos="222.60" lane="e0_0" slope="0.00" acceleration="0.00"/>
        <vehicle id="veh1" x="210.10" y="-1.60" angle="90.00" type="follower" speed="5.00" pos="210.10" lane="e0_0" slope="0.00" acceleration="-0.00"/>
    </timestep>
    <timestep time="26.00">
        <vehicle id="veh0" x="227.60" y="-1.60" angle="90.00" type="leader" speed="5.00" pos="227.60" lane="e0_0" slope="0.00" acceleration="0.00"/>
        <vehicle id="veh1" x="215.10" y="-1.60" angle="90.00" type="follower" speed="5.00" pos="215.10" lane="e0_0" slope="0.00" acceleration="-0.00"/>
    </timestep>
    <timestep time="27.00">
        <vehicle id="veh0" x="232.60" y="-1.60" angle="90.00" type="leader" speed="5.00" pos="232.60" lane="e0_0" slope="0.00" acceleration="0.00"/>
        <vehicle id="veh1" x="220.10" y="-1.60" angle="90.00" type="follower" speed="5.00" pos="220.10" lane="e0_0" slope="0.00" acceleration="-0.00"/>
    </timestep>
    <timestep time="28.00">
        <vehicle id="veh0" x="237.60" y="-1.60" angle="90.00" type="leader" speed="5.00" pos="237.60" lane="e0_0" slope="0.00" acceleration="0.00"/>
        <vehicle id="veh1" x="225.10" y="-1.60" angle="90.00" type="follower" speed="5.00" pos="225.10" lane="e0_0" slope="0.00" acceleration="-0.00"/>
    </timestep>
    <timestep time="29.00">
        <vehicle id="veh0" x="242.60" y="-1.60" angle="90.00" type="leader" speed="5.00" pos="242.60" lane="e0_0" slope="0.00" acceleration="0.00"/>
        <vehicle id="veh1" x="230.10" y="-1.60" angle="90.00" type="follower" speed="5.00" pos="230.10" lane="e0_0" slope="0.00" acceleration="-0.00"/>
    </timestep>
    <timestep time="30.00">
        <vehicle id="veh0" x="247.60" y="-1.60" angle="90.00" type="leader" speed="5.00" pos="247.60" lane="e0_0" slope="0.00" acceleration="0.00"/>
        <vehicle id="veh1" x="235.10" y="-1.60" angle="90.00" type="follower" speed="5.00" pos="235.10" lane="e0_0" slope="0.00" acceleration="-0.00"/>
    </timestep>
    <timestep time="31.00">
        <vehicle id="veh0" x="252.60" y="-1.60" angle="90.00" type="leader" speed="5.00" pos="252.60" lane="e0_0" slope="0.00" acceleration="0.00"/>
        <vehicle id="veh1" x="240.10" y="-1.60" angle="90.00" type="follower" speed="5.00" pos="240.10" lane="e0_0" slope="0.00" acceleration="-0.00"/>
    </timestep>
    <timestep time="32.00">
        <vehicle id="veh0" x="257.60" y="-1.60" angle="90.00" type="leader" speed="5.00" pos="257.60" lane="e0_0" slope="0.00" acceleration="0.00"/>
        <vehicle id="veh1" x="245.10" y="-1.60" angle="90.00" type="follower" speed="5.00" pos="245.10" lane="e0_0" slope="0.00" acceleration="-0.00"/>
    </timestep>
    <timestep time="33.00">
        <vehicle id="veh0" x="262.60" y="-1.60" angle="90.00" type="leader" speed="5.00" pos="262.60" lane="e0_0" slope="0.00" acceleration="0.00"/>
        <vehicle id="veh1" x="250.10" y="-1.60" angle="90.00" type="follower" speed="5.00" pos="250.10" lane="e0_0" slope="0.00" acceleration="-0.00"/>
    </timestep>
    <timestep time="34.00">
        <vehicle id="veh0" x="267.60" y="-1.60" angle="90.00" type="leader" speed="5.00" pos="267.60" lane="e0_0" slope="0.00" acceleration="0.00"/>
        <vehicle id="veh1" x="255.10" y="-1.60" angle="90.00" type="follower" speed="5.00" pos="255.10" lane="e0_0" slope="0.00" acceleration="-0.00"/>
    </timestep>
    <timestep time="35.00">
        <vehicle id="veh0" x="272.60" y="-1.60" angle="90.00" type="leader" speed="5.00" pos="272.60" lane="e0_0" slope="0.00" acceleration="0.00"/>
        <vehicle id="veh1" x="260.10" y="-1.60" angle="90.00" type="follower" speed="5.00" pos="260.10" lane="e0_0" slope="0.00" acceleration="-0.00"/>
    </timestep>
    <timestep time="36.00">
        <vehicle id="veh0" x="277.60" y="-1.60" angle="90.00" type="leader" speed="5.00" pos="277.60" lane="e0_0" slope="0.00" acceleration="0.00"/>
        <vehicle id="veh1" x="265.10" y="-1.60" angle="90.00" type="follower" speed="5.00" pos="265.10" lane="e0_0" slope="0.00" acceleration="-0.00"/>
    </timestep>
    <timestep time="37.00">
        <vehicle id="veh0" x="282.60" y="-1.60" angle="90.00" type="leader" speed="5.00" pos="282.60" lane="e0_0" slope="0.00" acceleration="0.00"/>
        <vehicle id="veh1" x="270.10" y="-1.60" angle="90.00" type="follower" speed="5.00" pos="270.10" lane="e0_0" slope="0.00" acceleration="-0.00"/>
    </timestep>
    <timestep time="38.00">
        <vehicle id="veh0" x="287.60" y="-1.60" angle="90.00" type="leader" speed="5.00" pos="287.60" lane="e0_0" slope="0.00" acceleration="0.00"/>
        <vehicle id="veh1" x="275.10" y="-1.60" angle="90.00" type="follower" speed="5.00" pos="275.10" lane="e0_0" slope="0.00" acceleration="-0.00"/>
    </timestep>
    <timestep time="39.00">
        <vehicle id="veh0" x="292.60" y="-1.60" angle="90.00" type="leader" speed="5.00" pos="292.60" lane="e0_0" slope="0.00" acceleration="0.00"/>
        <vehicle id="veh1" x="280.10" y="-1.60" angle="90.00" type="follower" speed="5.00" pos="280.10" lane="e0_0" slope="0.00" acceleration="-0.00"/>
    </timestep>
    <timestep time="40.00">
        <vehicle id="veh0" x="297.60" y="-1.60" angle="90.00" type="leader" speed="5.00" pos="297.60" lane="e0_0" slope="0.00" acceleration="0.00"/>
        <vehicle id="veh1" x="285.10" y="-1.60" angle="90.00" type="follower" speed="5.00" pos="285.10" lane="e0_0" slope="0.00" acceleration="-0.00"/>
    </timestep>
    <timestep time="41.00">
        <vehicle id="veh0" x="302.60" y="-1.60" angle="90.00" type="leader" speed="5.00" pos="302.60" lane="e0_0" slope="0.00" acceleration="0.00"/>
        <vehicle id="veh1" x="290.10" y="-1.60" angle="90.00" type="follower" speed="5.00" pos="290.10" lane="e0_0" slope="0.00" acceleration="-0.00"/>
    </timestep>
    <timestep time="42.00">
        <vehicle id="veh0" x="307.60" y="-1.60" angle="90.00" type="leader" speed="5.00" pos="307.60" lane="e0_0" slope="0.00" acceleration="0.00"/>
        <vehicle id="veh1" x="295.10" y="-1.60" angle="90.00" type="follower" speed="5.00" pos="295.10" lane="e0_0" slope="0.00" acceleration="-0.00"/>
    </timestep>
    <timestep time="43.00">
        <vehicle id="veh0" x="312.60" y="-1.60" angle="90.00" type="leader" speed="5.00" pos="312.60" lane="e0_0" slope="0.00" acceleration="0.00"/>
        <vehicle id="veh1" x="300.10" y="-1.60" angle="90.00" type="follower" speed="5.00" pos="300.10" lane="e0_0" slope="0.00" acceleration="-0.00"/>
    </timestep>
    <timestep time="44.00">
        <vehicle id="veh0" x="317.60" y="-1.60" angle="90.00" type="leader" speed="5.00" pos="317.60" lane="e0_0" slope="0.00" acceleration="0.00"/>
        <vehicle id="veh1" x="305.10" y="-1.60" angle="90.00" type="follower" speed="5.00" pos="305.10" lane="e0_0" slope="0.00" acceleration="-0.00"/>
    </timestep>
    <timestep time="45.00">
        <vehicle id="veh0" x="322.60" y="-1.60" angle="90.00" type="leader" speed="5.00" pos="322.60" lane="e0_0" slope="0.00" acceleration="0.00"/>
        <vehicle id="veh1" x="310.10" y="-1.60" angle="90.00" type="follower" speed="5.00" pos="310.10" lane="e0_0" slope="0.00" acceleration="-0.00"/>
    </timestep>
    <timestep time="46.00">
        <vehicle id="veh0" x="327.60" y="-1.60" angle="90.00" type="leader" speed="5.00" pos="327.60" lane="e0_0" slope="0.00" acceleration="0.00"/>
        <vehicle id="veh1" x="315.10" y="-1.60" angle="90.00" type="follower" speed="5.00" pos="315.10" lane="e0_0" slope="0.00" acceleration="-0.00"/>
    </timestep>
    <timestep time="47.00">
        <vehicle id="veh0" x="332.60" y="-1.60" angle="90.00" type="leader" speed="5.00" pos="332.60" lane="e0_0" slope="0.00" acceleration="0.00"/>
        <vehicle id="veh1" x="320.10" y="-1.60" angle="90.00" type="follower" speed="5.00" pos="320.10" lane="e0_0" slope="0.00" acceleration="-0.00"/>
    </timestep>
    <timestep time="48.00">
        <vehicle id="veh0" x="337.60" y="-1.60" angle="90.00" type="leader" speed="5.00" pos="337.60" lane="e0_0" slope="0.00" acceleration="0.00"/>
        <vehicle id="veh1" x="325.10" y="-1.60" angle="90.00" type="follower" speed="5.00" pos="325.10" lane="e0_0" slope="0.00" acceleration="-0.00"/>
    </timestep>
    <timestep time="49.00">
        <vehicle id="veh0" x="342.60" y="-1.60" angle="90.00" type="leader" speed="5.00" pos="342.60" lane="e0_0" slope="0.00" acceleration="0.00"/>
        <vehicle id="veh1" x="330.10" y="-1.60" angle="90.00" type="follower" speed="5.00" pos="330.10" lane="e0_0" slope="0.00" acceleration="-0.00"/>
    </timestep>
    <timestep time="50.00">
        <vehicle id="veh0" x="347.60" y="-1.60" angle="90.00" type="leader" speed="5.00" pos="347.60" lane="e0_0" slope="0.00" acceleration="0.00"/>
        <vehicle id="veh1" x="335.10" y="-1.60" angle="90.00" type="follower" speed="5.00" pos="335.10" lane="e0_0" slope="0.00" acceleration="-0.00"/>
    </timestep>
    <timestep time="51.00">
        <vehicle id="veh0" x="352.60" y="-1.60" angle="90.00" type="leader" speed="5.00" pos="352.60" lane="e0_0" slope="0.00" acceleration="0.00"/>
        <vehicle id="veh1" x="340.10" y="-1.60" angle="90.00" type="follower" speed="5.00" pos="340.10" lane="e0_0" slope="0.00" acceleration="-0.00"/>
    </timestep>
    <timestep time="52.00">
        <vehicle id="veh0" x="357.60" y="-1.60" angle="90.00" type="leader" speed="5.00" pos="357.60" lane="e0_0" slope="0.00" acceleration="0.00"/>
        <vehicle id="veh1" x="345.10" y="-1.60" angle="90.00" type="follower" speed="5.00" pos="345.10" lane="e0_0" slope="0.00" acceleration="-0.00"/>
    </timestep>
    <timestep time="53.00">
        <vehicle id="veh0" x="362.60" y="-1.60" angle="90.00" type="leader" speed="5.00" pos="362.60" lane="e0_0" slope="0.00" acceleration="0.00"/>
        <vehicle id="veh1" x="350.10" y="-1.60" angle="90.00" type="follower" speed="5.00" pos="350.10" lane="e0_0" slope="0.00" acceleration="-0.00"/>
    </timestep>
    <timestep time="54.00">
        <vehicle id="veh0" x="367.60" y="-1.60" angle="90.00" type="leader" speed="5.00" pos="367.60" lane="e0_0" slope="0.00" acceleration="0.00"/>
        <vehicle id="veh1" x="355.10" y="-1.60" angle="90.00" type="follower" speed="5.00" pos="355.10" lane="e0_0" slope="0.00" acceleration="-0.00"/>
    </timestep>
    <timestep time="55.00">
        <vehicle id="veh0" x="372.60" y="-1.60" angle="90.00" type="leader" speed="5.00" pos="372.60" lane="e0_0" slope="0.00" acceleration="0.00"/>
        <vehicle id="veh1" x="360.10" y="-1.60" angle="90.00" type="follower" speed="5.00" pos="360.10" lane="e0_0" slope="0.00" acceleration="-0.00"/>
    </timestep>
    <timestep time="56.00">
        <vehicle id="veh0" x="377.60" y="-1.60" angle="90.00" type="leader" speed="5.00" pos="377.60" lane="e0_0" slope="0.00" acceleration="0.00"/>
        <vehicle id="veh1" x="365.10" y="-1.60" angle="90.00" type="follower" speed="5.00" pos="365.10" lane="e0_0" slope="0.00" acceleration="-0.00"/>
    </timestep>
    <timestep time="57.00">
        <vehicle id="veh0" x="382.60" y="-1.60" angle="90.00" type="leader" speed="5.00" pos="382.60" lane="e0_0" slope="0.00" acceleration="0.00"/>
        <vehicle id="veh1" x="370.10" y="-1.60" angle="90.00" type="follower" speed="5.00" pos="370.10" lane="e0_0" slope="0.00" acceleration="-0.00"/>
    </timestep>
    <timestep time="58.00">
        <vehicle id="veh0" x="387.60" y="-1.60" angle="90.00" type="leader" speed="5.00" pos="387.60" lane="e0_0" slope="0.00" acceleration="0.00"/>
        <vehicle id="veh1" x="375.10" y="-1.60" angle="90.00" type="follower" speed="5.00" pos="375.10" lane="e0_0" slope="0.00" acceleration="-0.00"/>
    </timestep>
    <timestep time="59.00">
        <vehicle id="veh0" x="392.60" y="-1.60" angle="90.00" type="leader" speed="5.00" pos="392.60" lane="e0_0" slope="0.00" acceleration="0.00"/>
        <vehicle id="veh1" x="380.10" y="-1.60" angle="90.00" type="follower" speed="5.00" pos="380.10" lane="e0_0" slope="0.00" acceleration="-0.00"/>
    </timestep>
    <timestep time="60.00">
        <vehicle id="veh0" x="397.60" y="-1.60" angle="90.00" type="leader" speed="5.00" pos="397.60" lane="e0_0" slope="0.00" acceleration="0.00"/>
        <vehicle id="veh1" x="385.10" y="-1.60" angle="90.00" type="follower" speed="5.00" pos="385.10" lane="e0_0" slope="0.00" acceleration="-0.00"/>
    </timestep>
    <timestep time="61.00">
        <vehicle id="veh0" x="402.60" y="-1.60" angle="90.00" type="leader" speed="5.00" pos="402.60" lane="e0_0" slope="0.00" acceleration="0.00"/>
        <vehicle id="veh1" x="390.10" y="-1.60" angle="90.00" type="follower" speed="5.00" pos="390.10" lane="e0_0" slope="0.00" acceleration="-0.00"/>
    </timestep>
    <timestep time="62.00">
        <vehicle id="veh0" x="407.60" y="-1.60" angle="90.00" type="leader" speed="5.00" pos="407.60" lane="e0_0" slope="0.00" acceleration="0.00"/>
        <vehicle id="veh1" x="395.10" y="-1.60" angle="90.00" type="follower" speed="5.00" pos="395.10" lane="e0_0" slope="0.00" acceleration="0.00"/>
    </timestep>
    <timestep time="63.00">
        <vehicle id="veh0" x="412.60" y="-1.60" angle="90.00" type="leader" speed="5.00" pos="412.60" lane="e0_0" slope="0.00" acceleration="0.00"/>
        <vehicle id="veh1" x="400.10" y="-1.60" angle="90.00" type="follower" speed="5.00" pos="400.10" lane="e0_0" slope="0.00" acceleration="0.00"/>
    </timestep>
    <timestep time="64.00">
        <vehicle id="veh0" x="417.60" y="-1.60" angle="90.00" type="leader" speed="5.00" pos="417.60" lane="e0_0" slope="0.00" acceleration="0.00"/>
        <vehicle id="veh1" x="405.10" y="-1.60" angle="90.00" type="follower" speed="5.00" pos="405.10" lane="e0_0" slope="0.00" acceleration="0.00"/>
    </timestep>
    <timestep time="65.00">
        <vehicle id="veh0" x="422.60" y="-1.60" angle="90.00" type="leader" speed="5.00" pos="422.60" lane="e0_0" slope="0.00" acceleration="0.00"/>
        <vehicle id="veh1" x="410.10" y="-1.60" angle="90.00" type="follower" speed="5.00" pos="410.10" lane="e0_0" slope="0.00" acceleration="0.00"/>
    </timestep>
    <timestep time="66.00">
        <vehicle id="veh0" x="427.60" y="-1.60" angle="90.00" type="leader" speed="5.00" pos="427.60" lane="e0_0" slope="0.00" acceleration="0.00"/>
        <vehicle id="veh1" x="415.10" y="-1.60" angle="90.00" type="follower" speed="5.00" pos="415.10" lane="e0_0" slope="0.00" acceleration="0.00"/>
    </timestep>
    <timestep time="67.00">
        <vehicle id="veh0" x="432.60" y="-1.60" angle="90.00" type="leader" speed="5.00" pos="432.60" lane="e0_0" slope="0.00" acceleration="0.00"/>
        <vehicle id="veh1" x="420.10" y="-1.60" angle="90.00" type="follower" speed="5.00" pos="420.10" lane="e0_0" slope="0.00" acceleration="0.00"/>
    </timestep>
    <timestep time="68.00">
        <vehicle id="veh0" x="437.60" y="-1.60" angle="90.00" type="leader" speed="5.00" pos="437.60" lane="e0_0" slope="0.00" acceleration="0.00"/>
        <vehicle id="veh1" x="425.10" y="-1.60" angle="90.00" type="follower" speed="5.00" pos="425.10" lane="e0_0" slope="0.00" acceleration="0.00"/>
    </timestep>
    <timestep time="69.00">
        <vehicle id="veh0" x="442.60" y="-1.60" angle="90.00" type="leader" speed="5.00" pos="442.60" lane="e0_0" slope="0.00" acceleration="0.00"/>
        <vehicle id="veh1" x="430.10" y="-1.60" angle="90.00" type="follower" speed="5.00" pos="430.10" lane="e0_0" slope="0.00" acceleration="0.00"/>
    </timestep>
    <timestep time="70.00">
        <vehicle id="veh0" x="447.60" y="-1.60" angle="90.00" type="leader" speed="5.00" pos="447.60" lane="e0_0" slope="0.00" acceleration="0.00"/>
        <vehicle id="veh1" x="435.10" y="-1.60" angle="90.00" type="follower" speed="5.00" pos="435.10" lane="e0_0" slope="0.00" acceleration="0.00"/>
    </timestep>
    <timestep time="71.00">
        <vehicle id="veh0" x="452.60" y="-1.60" angle="90.00" type="leader" speed="5.00" pos="452.60" lane="e0_0" slope="0.00" acceleration="0.00"/>
        <vehicle id="veh1" x="440.10" y="-1.60" angle="90.00" type="follower" speed="5.00" pos="440.10" lane="e0_0" slope="0.00" acceleration="0.00"/>
    </timestep>
    <timestep time="72.00">
        <vehicle id="veh0" x="457.60" y="-1.60" angle="90.00" type="leader" speed="5.00" pos="457.60" lane="e0_0" slope="0.00" acceleration="0.00"/>
        <vehicle id="veh1" x="445.10" y="-1.60" angle="90.00" type="follower" speed="5.00" pos="445.10" lane="e0_0" slope="0.00" acceleration="0.00"/>
    </timestep>
    <timestep time="73.00">
        <vehicle id="veh0" x="462.60" y="-1.60" angle="90.00" type="leader" speed="5.00" pos="462.60" lane="e0_0" slope="0.00" acceleration="0.00"/>
        <vehicle id="veh1" x="450.10" y="-1.60" angle="90.00" type="follower" speed="5.00" pos="450.10" lane="e0_0" slope="0.00" acceleration="0.00"/>
    </timestep>
    <timestep time="74.00">
        <vehicle id="veh0" x="467.60" y="-1.60" angle="90.00" type="leader" speed="5.00" pos="467.60" lane="e0_0" slope="0.00" acceleration="0.00"/>
        <vehicle id="veh1" x="455.10" y="-1.60" angle="90.00" type="follower" speed="5.00" pos="455.10" lane="e0_0" slope="0.00" acceleration="0.00"/>
    </timestep>
    <timestep time="75.00">
        <vehicle id="veh0" x="472.60" y="-1.60" angle="90.00" type="leader" speed="5.00" pos="472.60" lane="e0_0" slope="0.00" acceleration="0.00"/>
        <vehicle id="veh1" x="460.10" y="-1.60" angle="90.00" type="follower" speed="5.00" pos="460.10" lane="e0_0" slope="0.00" acceleration="0.00"/>
    </timestep>
    <timestep time="76.00">
        <vehicle id="veh0" x="477.60" y="-1.60" angle="90.00" type="leader" speed="5.00" pos="477.60" lane="e0_0" slope="0.00" acceleration="0.00"/>
        <vehicle id="veh1" x="465.10" y="-1.60" angle="90.00" type="follower" speed="5.00" pos="465.10" lane="e0_0" slope="0.00" acceleration="0.00"/>
    </timestep>
    <timestep time="77.00">
        <vehicle id="veh0" x="482.60" y="-1.60" angle="90.00" type="leader" speed="5.00" pos="482.60" lane="e0_0" slope="0.00" acceleration="0.00"/>
        <vehicle id="veh1" x="470.10" y="-1.60" angle="90.00" type="follower" speed="5.00" pos="470.10" lane="e0_0" slope="0.00" acceleration="0.00"/>
    </timestep>
    <timestep time="78.00">
        <vehicle id="veh0" x="487.60" y="-1.60" angle="90.00" type="leader" speed="5.00" pos="487.60" lane="e0_0" slope="0.00" acceleration="0.00"/>
        <vehicle id="veh1" x="475.10" y="-1.60" angle="90.00" type="follower" speed="5.00" pos="475.10" lane="e0_0" slope="0.00" acceleration="0.00"/>
    </timestep>
    <timestep time="79.00">
        <vehicle id="veh0" x="492.60" y="-1.60" angle="90.00" type="leader" speed="5.00" pos="492.60" lane="e0_0" slope="0.00" acceleration="0.00"/>
        <vehicle id="veh1" x="480.10" y="-1.60" angle="90.00" type="follower" speed="5.00" pos="480.10" lane="e0_0" slope="0.00" acceleration="0.00"/>
    </timestep>
    <timestep time="80.00">
        <vehicle id="veh0" x="497.60" y="-1.60" angle="90.00" type="leader" speed="5.00" pos="497.60" lane="e0_0" slope="0.00" acceleration="0.00"/>
        <vehicle id="veh1" x="485.10" y="-1.60" angle="90.00" type="follower" speed="5.00" pos="485.10" lane="e0_0" slope="0.00" acceleration="0.00"/>
    </timestep>
    <timestep time="81.00">
        <vehicle id="veh0" x="502.60" y="-1.60" angle="90.00" type="leader" speed="5.00" pos="502.60" lane="e0_0" slope="0.00" acceleration="0.00"/>
        <vehicle id="veh1" x="490.10" y="-1.60" angle="90.00" type="follower" speed="5.00" pos="490.10" lane="e0_0" slope="0.00" acceleration="0.00"/>
    </timestep>
    <timestep time="82.00">
        <vehicle id="veh0" x="507.60" y="-1.60" angle="90.00" type="leader" speed="5.00" pos="507.60" lane="e0_0" slope="0.00" acceleration="0.00"/>
        <vehicle id="veh1" x="495.10" y="-1.60" angle="90.00" type="follower" speed="5.00" pos="495.10" lane="e0_0" slope="0.00" acceleration="0.00"/>
    </timestep>
    <timestep time="83.00">
        <vehicle id="veh0" x="512.60" y="-1.60" angle="90.00" type="leader" speed="5.00" pos="512.60" lane="e0_0" slope="0.00" acceleration="0.00"/>