<?xml version="1.0" encoding="UTF-8"?>

<!-- generated on 2026-07-17 09:44:41 by Eclipse SUMO sumo Version 1.20.0
<configuration xmlns:xsi="http://www.w3.org/2001/XMLSchema-instance" xsi:noNamespaceSchemaLocation="http://sumo.dlr.de/xsd/sumoConfiguration.xsd">

    <input>
        <net-file value="net.net.xml"/>
        <route-files value="rou.rou.xml"/>
    </input>

    <output>
        <precision value="6"/>
        <fcd-output value="golden.fcd.xml"/>
        <fcd-output.acceleration value="true"/>
        <save-state.times value="1"/>
        <save-state.files value="golden.state.xml"/>
    </output>

    <time>
        <begin value="0"/>
        <end value="90"/>
        <step-length value="1"/>
    </time>

    <processing>
        <step-method.ballistic value="false"/>
        <collision.action value="none"/>
        <time-to-teleport value="-1"/>
        <lanechange.duration value="0"/>
        <default.action-step-length value="1"/>
        <default.speeddev value="0"/>
    </processing>

    <report>
        <no-step-log value="true"/>
    </report>

    <random_number>
        <seed value="42"/>
    </random_number>

</configuration>
-->

<fcd-export xmlns:xsi="http://www.w3.org/2001/XMLSchema-instance" xsi:noNamespaceSchemaLocation="http://sumo.dlr.de/xsd/fcd_file.xsd">
    <timestep time="0.000">
        <vehicle id="veh0" x="0.000000" y="-1.600000" angle="90.000000" type="car" speed="13.890000" pos="0.000000" lane="E1_1" slope="0.000000" acceleration="0.000000"/>
    </timestep>
    <timestep time="1.000">
        <vehicle id="veh0" x="13.890000" y="-1.600000" angle="90.000000" type="car" speed="13.890000" pos="13.890000" lane="E1_1" slope="0.000000" acceleration="0.000000"/>
    </timestep>
    <timestep time="2.000">
        <vehicle id="veh0" x="27.780000" y="-1.600000" angle="90.000000" type="car" speed="13.890000" pos="27.780000" lane="E1_1" slope="0.000000" acceleration="0.000000"/>
    </timestep>
    <timestep time="3.000">
        <vehicle id="veh0" x="41.670000" y="-1.600000" angle="90.000000" type="car" speed="13.890000" pos="41.670000" lane="E1_1" slope="0.000000" acceleration="0.000000"/>
    </timestep>
    <timestep time="4.000">
        <vehicle id="veh0" x="55.560000" y="-1.600000" angle="90.000000" type="car" speed="13.890000" pos="55.560000" lane="E1_1" slope="0.000000" acceleration="0.000000"/>
    </timestep>
    <timestep time="5.000">
        <vehicle id="veh0" x="69.450000" y="-1.600000" angle="90.000000" type="car" speed="13.890000" pos="69.450000" lane="E1_1" slope="0.000000" acceleration="0.000000"/>
    </timestep>
    <timestep time="6.000">
        <vehicle id="veh0" x="83.340000" y="-1.600000" angle="90.000000" type="car" speed="13.890000" pos="83.340000" lane="E1_1" slope="0.000000" acceleration="0.000000"/>
    </timestep>
    <timestep time="7.000">
        <vehicle id="veh0" x="97.230000" y="-1.600000" angle="90.000000" type="car" speed="13.890000" pos="97.230000" lane="E1_1" slope="0.000000" acceleration="0.000000"/>
    </timestep>
    <timestep time="8.000">
        <vehicle id="veh0" x="111.120000" y="-1.600000" angle="90.000000" type="car" speed="13.890000" pos="111.120000" lane="E1_1" slope="0.000000" acceleration="0.000000"/>
    </timestep>
    <timestep time="9.000">
        <vehicle id="veh0" x="125.010000" y="-1.600000" angle="90.000000" type="car" speed="13.890000" pos="125.010000" lane="E1_1" slope="0.000000" acceleration="0.000000"/>
    </timestep>
    <timestep time="10.000">
        <vehicle id="veh0" x="138.900000" y="-1.600000" angle="90.000000" type="car" speed="13.890000" pos="138.900000" lane="E1_1" slope="0.000000" acceleration="0.000000"/>
    </timestep>
    <timestep time="11.000">
        <vehicle id="veh0" x="152.790000" y="-1.600000" angle="90.000000" type="car" speed="13.890000" pos="152.790000" lane="E1_1" slope="0.000000" acceleration="0.000000"/>
    </timestep>
    <timestep time="12.000">
        <vehicle id="veh0" x="166.680000" y="-1.600000" angle="90.000000" type="car" speed="13.890000" pos="166.680000" lane="E1_1" slope="0.000000" acceleration="0.000000"/>
    </timestep>
    <timestep time="13.000">
        <vehicle id="veh0" x="180.570000" y="-1.600000" angle="90.000000" type="car" speed="13.890000" pos="180.570000" lane="E1_1" slope="0.000000" acceleration="0.000000"/>
    </timestep>
    <timestep time="14.000">
        <vehicle id="veh0" x="194.460000" y="-1.600000" angle="90.000000" type="car" speed="13.890000" pos="194.460000" lane="E1_1" slope="0.000000" acceleration="0.000000"/>
    </timestep>
    <timestep time="15.000">
        <vehicle id="veh0" x="208.350000" y="-1.600000" angle="90.000000" type="car" speed="13.890000" pos="208.350000" lane="E1_1" slope="0.000000" acceleration="0.000000"/>
    </timestep>
    <timestep time="16.000">
        <vehicle id="veh0" x="222.240000" y="-1.600000" angle="90.000000" type="car" speed="13.890000" pos="222.240000" lane="E1_1" slope="0.000000" acceleration="0.000000"/>
    </timestep>
    <timestep time="17.000">
        <vehicle id="veh0" x="236.130000" y="-1.600000" angle="90.000000" type="car" speed="13.890000" pos="236.130000" lane="E1_1" slope="0.000000" acceleration="0.000000"/>
    </timestep>
    <timestep time="18.000">
        <vehicle id="veh0" x="250.020000" y="-1.600000" angle="90.000000" type="car" speed="13.890000" pos="250.020000" lane="E1_1" slope="0.000000" acceleration="0.000000"/>
    </timestep>
    <timestep time="19.000">
        <vehicle id="veh0" x="263.910000" y="-1.600000" angle="90.000000" type="car" speed="13.890000" pos="263.910000" lane="E1_1" slope="0.000000" acceleration="0.000000"/>
    </timestep>
    <timestep time="20.000">
        <vehicle id="veh0" x="277.800000" y="-1.600000" angle="90.000000" type="car" speed="13.890000" pos="277.800000" lane="E1_1" slope="0.000000" acceleration="0.000000"/>
    </timestep>
    <timestep time="21.000">
        <vehicle id="veh0" x="291.690000" y="-1.600000" angle="90.000000" type="car" speed="13.890000" pos="291.690000" lane="E1_1" slope="0.000000" acceleration="0.000000"/>
    </timestep>
    <timestep time="22.000">
        <vehicle id="veh0" x="305.580000" y="-1.600000" angle="90.000000" type="car" speed="13.890000" pos="305.580000" lane="E1_1" slope="0.000000" acceleration="0.000000"/>
    </timestep>
    <timestep time="23.000">
        <vehicle id="veh0" x="319.470000" y="-1.600000" angle="90.000000" type="car" speed="13.890000" pos="319.470000" lane="E1_1" slope="0.000000" acceleration="0.000000"/>
    </timestep>
    <timestep time="24.000">
        <vehicle id="veh0" x="333.360000" y="-1.600000" angle="90.000000" type="car" speed="13.890000" pos="333.360000" lane="E1_1" slope="0.000000" acceleration="0.000000"/>
    </timestep>
    <timestep time="25.000">
        <vehicle id="veh0" x="347.250000" y="-1.600000" angle="90.000000" type="car" speed="13.890000" pos="347.250000" lane="E1_1" slope="0.000000" acceleration="0.000000"/>
    </timestep>
    <timestep time="26.000">
        <vehicle id="veh0" x="361.140000" y="-1.600000" angle="90.000000" type="car" speed="13.890000" pos="361.140000" lane="E1_1" slope="0.000000" acceleration="0.000000"/>
    </timestep>
    <timestep time="27.000">
        <vehicle id="veh0" x="375.030000" y="-1.600000" angle="90.000000" type="car" speed="13.890000" pos="375.030000" lane="E1_1" slope="0.000000" acceleration="0.000000"/>
    </timestep>
    <timestep time="28.000">
        <vehicle id="veh0" x="388.920000" y="-1.600000" angle="90.000000" type="car" speed="13.890000" pos="388.920000" lane="E1_1" slope="0.000000" acceleration="0.000000"/>
    </timestep>
    <timestep time="29.000">
        <vehicle id="veh0" x="402.810000" y="-1.600000" angle="90.000000" type="car" speed="13.890000" pos="402.810000" lane="E1_1" slope="0.000000" acceleration="0.000000"/>
    </timestep>
    <timestep time="30.000">
        <vehicle id="veh0" x="416.700000" y="-1.600000" angle="90.000000" type="car" speed="13.890000" pos="416.700000" lane="E1_1" slope="0.000000" acceleration="0.000000"/>
    </timestep>
    <timestep time="31.000">
        <vehicle id="veh0" x="430.590000" y="-1.600000" angle="90.000000" type="car" speed="13.890000" pos="430.590000" lane="E1_1" slope="0.000000" acceleration="0.000000"/>
    </timestep>
    <timestep time="32.000">
        <vehicle id="veh0" x="444.480000" y="-1.600000" angle="90.000000" type="car" speed="13.890000" pos="444.480000" lane="E1_1" slope="0.000000" acceleration="0.000000"/>
    </timestep>
    <timestep time="33.000">
        <vehicle id="veh0" x="458.370000" y="-1.600000" angle="90.000000" type="car" speed="13.890000" pos="458.370000" lane="E1_1" slope="0.000000" acceleration="0.000000"/>
    </timestep>
    <timestep time="34.000">
        <vehicle id="veh0" x="472.260000" y="-1.600000" angle="90.000000" type="car" speed="13.890000" pos="472.260000" lane="E1_1" slope="0.000000" acceleration="0.000000"/>
    </timestep>
    <timestep time="35.000">
        <vehicle id="veh0" x="486.150000" y="-1.600000" angle="90.000000" type="car" speed="13.890000" pos="486.150000" lane="E1_1" slope="0.000000" acceleration="0.000000"/>
    </timestep>
    <timestep time="36.000">
        <vehicle id="veh0" x="500.040000" y="-1.600000" angle="90.000000" type="car" speed="13.890000" pos="4.040000" lane=":B_0_0" slope="0.000000" acceleration="0.000000"/>
    </timestep>
    <timestep time="37.000">
        <vehicle id="veh0" x="513.930000" y="-1.600000" angle="90.000000" type="car" speed="13.890000" pos="9.930000" lane="E2_0" slope="0.000000" acceleration="0.000000"/>
    </timestep>
    <timestep time="38.000">
        <vehicle id="veh0" x="527.820000" y="-1.600000" angle="90.000000" type="car" speed="13.890000" pos="23.820000" lane="E2_0" slope="0.000000" acceleration="0.000000"/>
    </timestep>
    <timestep time="39.000">
        <vehicle id="veh0" x="541.710000" y="-1.600000" angle="90.000000" type="car" speed="13.890000" pos="37.710000" lane="E2_0" slope="0.000000" acceleration="0.000000"/>
    </timestep>
    <timestep time="40.000">
        <vehicle id="veh0" x="555.600000" y="-1.600000" angle="90.000000" type="car" speed="13.890000" pos="51.600000" lane="E2_0" slope="0.000000" acceleration="0.000000"/>
    </timestep>
    <timestep time="41.000">
        <vehicle id="veh0" x="569.490000" y="-1.600000" angle="90.000000" type="car" speed="13.890000" pos="65.490000" lane="E2_0" slope="0.000000" acceleration="0.000000"/>
    </timestep>
    <timestep time="42.000">
        <vehicle id="veh0" x="583.380000" y="-1.600000" angle="90.000000" type="car" speed="13.890000" pos="79.380000" lane="E2_0" slope="0.000000" acceleration="0.000000"/>
    </timestep>
    <timestep time="43.000">
        <vehicle id="veh0" x="597.270000" y="-1.600000" angle="90.000000" type="car" speed="13.890000" pos="93.270000" lane="E2_0" slope="0.000000" acceleration="0.000000"/>
    </timestep>
    <timestep time="44.000">
        <vehicle id="veh0" x="611.160000" y="-1.600000" angle="90.000000" type="car" speed="13.890000" pos="107.160000" lane="E2_0" slope="0.000000" acceleration="0.000000"/>
    </timestep>
    <timestep time="45.000">
        <vehicle id="veh0" x="625.050000" y="-1.600000" angle="90.000000" type="car" speed="13.890000" pos="121.050000" lane="E2_0" slope="0.000000" acceleration="0.000000"/>
    </timestep>
    <timestep time="46.000">
        <vehicle id="veh0" x="638.940000" y="-1.600000" angle="90.000000" type="car" speed="13.890000" pos="134.940000" lane="E2_0" slope="0.000000" acceleration="0.000000"/>
    </timestep>
    <timestep time="47.000">
        <vehicle id="veh0" x="652.830000" y="-1.600000" angle="90.000000" type="car" speed="13.890000" pos="148.830000" lane="E2_0" slope="0.000000" acceleration="0.000000"/>
    </timestep>
    <timestep time="48.000">
        <vehicle id="veh0" x="666.720000" y="-1.600000" angle="90.000000" type="car" speed="13.890000" pos="162.720000" lane="E2_0" slope="0.000000" acceleration="0.000000"/>
    </timestep>
    <timestep time="49.000">
        <vehicle id="veh0" x="680.610000" y="-1.600000" angle="90.000000" type="car" speed="13.890000" pos="176.610000" lane="E2_0" slope="0.000000" acceleration="0.000000"/>
    </timestep>
    <timestep time="50.000">
        <vehicle id="veh0" x="694.500000" y="-1.600000" angle="90.000000" type="car" speed="13.890000" pos="190.500000" lane="E2_0" slope="0.000000" acceleration="0.000000"/>
    </timestep>
    <timestep time="51.000">
        <vehicle id="veh0" x="708.390000" y="-1.600000" angle="90.000000" type="car" speed="13.890000" pos="204.390000" lane="E2_0" slope="0.000000" acceleration="0.000000"/>
    </timestep>
    <timestep time="52.000">
        <vehicle id="veh0" x="722.280000" y="-1.600000" angle="90.000000" type="car" speed="13.890000" pos="218.280000" lane="E2_0" slope="0.000000" acceleration="0.000000"/>
    </timestep>
    <timestep time="53.000">
        <vehicle id="veh0" x="736.170000" y="-1.600000" angle="90.000000" type="car" speed="13.890000" pos="232.170000" lane="E2_0" slope="0.000000" acceleration="0.000000"/>
    </timestep>
    <timestep time="54.000">
        <vehicle id="veh0" x="750.060000" y="-1.600000" angle="90.000000" type="car" speed="13.890000" pos="246.060000" lane="E2_0" slope="0.000000" acceleration="0.000000"/>
    </timestep>
    <timestep time="55.000">
        <vehicle id="veh0" x="763.950000" y="-1.600000" angle="90.000000" type="car" speed="13.890000" pos="259.950000" lane="E2_0" slope="0.000000" acceleration="0.000000"/>
    </timestep>
    <timestep time="56.000">
        <vehicle id="veh0" x="777.840000" y="-1.600000" angle="90.000000" type="car" speed="13.890000" pos="273.840000" lane="E2_0" slope="0.000000" acceleration="0.000000"/>
    </timestep>
    <timestep time="57.000">
        <vehicle id="veh0" x="791.730000" y="-1.600000" angle="90.000000" type="car" speed="13.890000" pos="287.730000" lane="E2_0" slope="0.000000" acceleration="0.000000"/>
    </timestep>
    <timestep time="58.000">
        <vehicle id="veh0" x="805.620000" y="-1.600000" angle="90.000000" type="car" speed="13.890000" pos="301.620000" lane="E2_0" slope="0.000000" acceleration="0.000000"/>
    </timestep>
    <timestep time="59.000">
        <vehicle id="veh0" x="819.510000" y="-1.600000" angle="90.000000" type="car" speed="13.890000" pos="315.510000" lane="E2_0" slope="0.000000" acceleration="0.000000"/>
    </timestep>
    <timestep time="60.000">
        <vehicle id="veh0" x="833.400000" y="-1.600000" angle="90.000000" type="car" speed="13.890000" pos="329.400000" lane="E2_0" slope="0.000000" acceleration="0.000000"/>
    </timestep>
    <timestep time="61.000">
        <vehicle id="veh0" x="847.290000" y="-1.600000" angle="90.000000" type="car" speed="13.890000" pos="343.290000" lane="E2_0" slope="0.000000" acceleration="0.000000"/>
    </timestep>
    <timestep time="62.000">
        <vehicle id="veh0" x="861.180000" y="-1.600000" angle="90.000000" type="car" speed="13.890000" pos="357.180000" lane="E2_0" slope="0.000000" acceleration="0.000000"/>
    </timestep>
    <timestep time="63.000">
        <vehicle id="veh0" x="875.070000" y="-1.600000" angle="90.000000" type="car" speed="13.890000" pos="371.070000" lane="E2_0" slope="0.000000" acceleration="0.000000"/>
    </timestep>
    <timestep time="64.000">
        <vehicle id="veh0" x="888.960000" y="-1.600000" angle="90.000000" type="car" speed="13.890000" pos="384.960000" lane="E2_0" slope="0.000000" acceleration="0.000000"/>
    </timestep>
    <timestep time="65.000">
        <vehicle id="veh0" x="902.850000" y="-1.600000" angle="90.000000" type="car" speed="13.890000" pos="398.850000" lane="E2_0" slope="0.000000" acceleration="0.000000"/>
    </timestep>
    <timestep time="66.000">
        <vehicle id="veh0" x="916.740000" y="-1.600000" angle="90.000000" type="car" speed="13.890000" pos="412.740000" lane="E2_0" slope="0.000000" acceleration="0.000000"/>
    </timestep>
    <timestep time="67.000">
        <vehicle id="veh0" x="930.630000" y="-1.600000" angle="90.000000" type="car" speed="13.890000" pos="426.630000" lane="E2_0" slope="0.000000" acceleration="0.000000"/>
    </timestep>
    <timestep time="68.000">
        <vehicle id="veh0" x="944.520000" y="-1.600000" angle="90.000000" type="car" speed="13.890000" pos="440.520000" lane="E2_0" slope="0.000000" acceleration="0.000000"/>
    </timestep>
    <timestep time="69.000">
        <vehicle id="veh0" x="958.410000" y="-1.600000" angle="90.000000" type="car" speed="13.890000" pos="454.410000" lane="E2_0" slope="0.000000" acceleration="0.000000"/>
    </timestep>
    <timestep time="70.000">
        <vehicle id="veh0" x="972.300000" y="-1.600000" angle="90.000000" type="car" speed="13.890000" pos="468.300000" lane="E2_0" slope="0.000000" acceleration="0.000000"/>
    </timestep>
    <timestep time="71.000">
        <vehicle id="veh0" x="986.190000" y="-1.600000" angle="90.000000" type="car" speed="13.890000" pos="482.190000" lane="E2_0" slope="0.000000" acceleration="0.000000"/>
    </timestep>
    <timestep time="72.000"/>
    <timestep time="73.000"/>
    <timestep time="74.000"/>
    <timestep time="75.000"/>
    <timestep time="76.000"/>
    <timestep time="77.000"/>
    <timestep time="78.000"/>
    <timestep time="79.000"/>
    <timestep time="80.000"/>
    <timestep time="81.000"/>
    <timestep time="82.000"/>
    <timestep time="83.000"/>
    <timestep time="84.000"/>
    <timestep time="85.000"/>
    <timestep time="86.000"/>
    <timestep time="87.000"/>
    <timestep time="88.000"/>
    <timestep time="89.000"/>
</fcd-export>
