<?xml version="1.0" encoding="UTF-8"?>

<!-- generated on 2026-07-07 05:50:00 by Eclipse SUMO sumo Version 1.20.0
<configuration xmlns:xsi="http://www.w3.org/2001/XMLSchema-instance" xsi:noNamespaceSchemaLocation="http://sumo.dlr.de/xsd/sumoConfiguration.xsd">

    <input>
        <net-file value="net.net.xml"/>
        <route-files value="rou.rou.xml"/>
    </input>

    <output>
        <precision value="6"/>
        <fcd-output value="golden.fcd.xml"/>
        <fcd-output.acceleration value="true"/>
        <save-state.times value="1"/>
        <save-state.files value="golden.state.xml"/>
    </output>

    <time>
        <begin value="0"/>
        <end value="40"/>
        <step-length value="1"/>
    </time>

    <processing>
        <step-method.ballistic value="false"/>
        <time-to-teleport value="-1"/>
        <default.action-step-length value="1"/>
        <default.speeddev value="0"/>
    </processing>

    <report>
        <no-step-log value="true"/>
    </report>

    <random_number>
        <seed value="42"/>
    </random_number>

</configuration>
-->

<fcd-export xmlns:xsi="http://www.w3.org/2001/XMLSchema-instance" xsi:noNamespaceSchemaLocation="http://sumo.dlr.de/xsd/fcd_file.xsd">
    <timestep time="0.000">
        <vehicle id="veh0" x="0.000000" y="-1.600000" angle="90.000000" type="passenger0" speed="0.000000" pos="0.000000" lane="e0_0" slope="0.000000" acceleration="0.000000"/>
    </timestep>
    <timestep time="1.000">
        <vehicle id="veh0" x="2.600000" y="-1.600000" angle="90.000000" type="passenger0" speed="2.600000" pos="2.600000" lane="e0_0" slope="0.000000" acceleration="2.600000"/>
    </timestep>
    <timestep time="2.000">
        <vehicle id="veh0" x="7.800000" y="-1.600000" angle="90.000000" type="passenger0" speed="5.200000" pos="7.800000" lane="e0_0" slope="0.000000" acceleration="2.600000"/>
    </timestep>
    <timestep time="3.000">
        <vehicle id="veh0" x="15.600000" y="-1.600000" angle="90.000000" type="passenger0" speed="7.800000" pos="15.600000" lane="e0_0" slope="0.000000" acceleration="2.600000"/>
    </timestep>
    <timestep time="4.000">
        <vehicle id="veh0" x="26.000000" y="-1.600000" angle="90.000000" type="passenger0" speed="10.400000" pos="26.000000" lane="e0_0" slope="0.000000" acceleration="2.600000"/>
    </timestep>
    <timestep time="5.000">
        <vehicle id="veh0" x="39.000000" y="-1.600000" angle="90.000000" type="passenger0" speed="13.000000" pos="39.000000" lane="e0_0" slope="0.000000" acceleration="2.600000"/>
    </timestep>
    <timestep time="6.000">
        <vehicle id="veh0" x="52.890000" y="-1.600000" angle="90.000000" type="passenger0" speed="13.890000" pos="52.890000" lane="e0_0" slope="0.000000" acceleration="0.890000"/>
    </timestep>
    <timestep time="7.000">
        <vehicle id="veh0" x="66.780000" y="-1.600000" angle="90.000000" type="passenger0" speed="13.890000" pos="66.780000" lane="e0_0" slope="0.000000" acceleration="0.000000"/>
    </timestep>
    <timestep time="8.000">
        <vehicle id="veh0" x="80.670000" y="-1.600000" angle="90.000000" type="passenger0" speed="13.890000" pos="80.670000" lane="e0_0" slope="0.000000" acceleration="0.000000"/>
    </timestep>
    <timestep time="9.000">
        <vehicle id="veh0" x="94.560000" y="-1.600000" angle="90.000000" type="passenger0" speed="13.890000" pos="94.560000" lane="e0_0" slope="0.000000" acceleration="0.000000"/>
    </timestep>
    <timestep time="10.000">
        <vehicle id="veh0" x="108.450000" y="-1.600000" angle="90.000000" type="passenger0" speed="13.890000" pos="108.450000" lane="e0_0" slope="0.000000" acceleration="0.000000"/>
    </timestep>
    <timestep time="11.000">
        <vehicle id="veh0" x="122.340000" y="-1.600000" angle="90.000000" type="passenger0" speed="13.890000" pos="122.340000" lane="e0_0" slope="0.000000" acceleration="0.000000"/>
    </timestep>
    <timestep time="12.000">
        <vehicle id="veh0" x="136.230000" y="-1.600000" angle="90.000000" type="passenger0" speed="13.890000" pos="136.230000" lane="e0_0" slope="0.000000" acceleration="0.000000"/>
    </timestep>
    <timestep time="13.000">
        <vehicle id="veh0" x="150.120000" y="-1.600000" angle="90.000000" type="passenger0" speed="13.890000" pos="150.120000" lane="e0_0" slope="0.000000" acceleration="0.000000"/>
    </timestep>
    <timestep time="14.000">
        <vehicle id="veh0" x="164.010000" y="-1.600000" angle="90.000000" type="passenger0" speed="13.890000" pos="164.010000" lane="e0_0" slope="0.000000" acceleration="0.000000"/>
    </timestep>
    <timestep time="15.000">
        <vehicle id="veh0" x="177.900000" y="-1.600000" angle="90.000000" type="passenger0" speed="13.890000" pos="177.900000" lane="e0_0" slope="0.000000" acceleration="0.000000"/>
    </timestep>
    <timestep time="16.000">
        <vehicle id="veh0" x="189.766667" y="-1.600000" angle="90.000000" type="passenger0" speed="11.866667" pos="189.766667" lane="e0_0" slope="0.000000" acceleration="-2.023333"/>
    </timestep>
    <timestep time="17.000">
        <vehicle id="veh0" x="197.133333" y="-1.600000" angle="90.000000" type="passenger0" speed="7.366667" pos="197.133333" lane="e0_0" slope="0.000000" acceleration="-4.500000"/>
    </timestep>
    <timestep time="18.000">
        <vehicle id="veh0" x="200.000000" y="-1.600000" angle="90.000000" type="passenger0" speed="2.866667" pos="200.000000" lane="e0_0" slope="0.000000" acceleration="-4.500000"/>
    </timestep>
    <timestep time="19.000">
        <vehicle id="veh0" x="200.000000" y="-1.600000" angle="90.000000" type="passenger0" speed="0.000000" pos="200.000000" lane="e0_0" slope="0.000000" acceleration="-2.866667"/>
    </timestep>
    <timestep time="20.000">
        <vehicle id="veh0" x="200.000000" y="-1.600000" angle="90.000000" type="passenger0" speed="0.000000" pos="200.000000" lane="e0_0" slope="0.000000" acceleration="0.000000"/>
    </timestep>
    <timestep time="21.000">
        <vehicle id="veh0" x="200.000000" y="-1.600000" angle="90.000000" type="passenger0" speed="0.000000" pos="200.000000" lane="e0_0" slope="0.000000" acceleration="0.000000"/>
    </timestep>
    <timestep time="22.000">
        <vehicle id="veh0" x="200.000000" y="-1.600000" angle="90.000000" type="passenger0" speed="0.000000" pos="200.000000" lane="e0_0" slope="0.000000" acceleration="0.000000"/>
    </timestep>
    <timestep time="23.000">
        <vehicle id="veh0" x="200.000000" y="-1.600000" angle="90.000000" type="passenger0" speed="0.000000" pos="200.000000" lane="e0_0" slope="0.000000" acceleration="0.000000"/>
    </timestep>
    <timestep time="24.000">
        <vehicle id="veh0" x="200.000000" y="-1.600000" angle="90.000000" type="passenger0" speed="0.000000" pos="200.000000" lane="e0_0" slope="0.000000" acceleration="0.000000"/>
    </timestep>
    <timestep time="25.000">
        <vehicle id="veh0" x="200.000000" y="-1.600000" angle="90.000000" type="passenger0" speed="0.000000" pos="200.000000" lane="e0_0" slope="0.000000" acceleration="0.000000"/>
    </timestep>
    <timestep time="26.000">
        <vehicle id="veh0" x="200.000000" y="-1.600000" angle="90.000000" type="passenger0" speed="0.000000" pos="200.000000" lane="e0_0" slope="0.000000" acceleration="0.000000"/>
    </timestep>
    <timestep time="27.000">
        <vehicle id="veh0" x="200.000000" y="-1.600000" angle="90.000000" type="passenger0" speed="0.000000" pos="200.000000" lane="e0_0" slope="0.000000" acceleration="0.000000"/>
    </timestep>
    <timestep time="28.000">
        <vehicle id="veh0" x="200.000000" y="-1.600000" angle="90.000000" type="passenger0" speed="0.000000" pos="200.000000" lane="e0_0" slope="0.000000" acceleration="0.000000"/>
    </timestep>
    <timestep time="29.000">
        <vehicle id="veh0" x="202.600000" y="-1.600000" angle="90.000000" type="passenger0" speed="2.600000" pos="202.600000" lane="e0_0" slope="0.000000" acceleration="2.600000"/>
    </timestep>
    <timestep time="30.000">
        <vehicle id="veh0" x="207.800000" y="-1.600000" angle="90.000000" type="passenger0" speed="5.200000" pos="207.800000" lane="e0_0" slope="0.000000" acceleration="2.600000"/>
    </timestep>
    <timestep time="31.000">
        <vehicle id="veh0" x="215.600000" y="-1.600000" angle="90.000000" type="passenger0" speed="7.800000" pos="215.600000" lane="e0_0" slope="0.000000" acceleration="2.600000"/>
    </timestep>
    <timestep time="32.000">
        <vehicle id="veh0" x="226.000000" y="-1.600000" angle="90.000000" type="passenger0" speed="10.400000" pos="226.000000" lane="e0_0" slope="0.000000" acceleration="2.600000"/>
    </timestep>
    <timestep time="33.000">
        <vehicle id="veh0" x="239.000000" y="-1.600000" angle="90.000000" type="passenger0" speed="13.000000" pos="239.000000" lane="e0_0" slope="0.000000" acceleration="2.600000"/>
    </timestep>
    <timestep time="34.000">
        <vehicle id="veh0" x="252.890000" y="-1.600000" angle="90.000000" type="passenger0" speed="13.890000" pos="252.890000" lane="e0_0" slope="0.000000" acceleration="0.890000"/>
    </timestep>
    <timestep time="35.000">
        <vehicle id="veh0" x="266.780000" y="-1.600000" angle="90.000000" type="passenger0" speed="13.890000" pos="266.780000" lane="e0_0" slope="0.000000" acceleration="0.000000"/>
    </timestep>
    <timestep time="36.000">
        <vehicle id="veh0" x="280.670000" y="-1.600000" angle="90.000000" type="passenger0" speed="13.890000" pos="280.670000" lane="e0_0" slope="0.000000" acceleration="0.000000"/>
    </timestep>
    <timestep time="37.000">
        <vehicle id="veh0" x="294.560000" y="-1.600000" angle="90.000000" type="passenger0" speed="13.890000" pos="294.560000" lane="e0_0" slope="0.000000" acceleration="0.000000"/>
    </timestep>
    <timestep time="38.000">
        <vehicle id="veh0" x="308.450000" y="-1.600000" angle="90.000000" type="passenger0" speed="13.890000" pos="308.450000" lane="e0_0" slope="0.000000" acceleration="0.000000"/>
    </timestep>
    <timestep time="39.000">
        <vehicle id="veh0" x="322.340000" y="-1.600000" angle="90.000000" type="passenger0" speed="13.890000" pos="322.340000" lane="e0_0" slope="0.000000" acceleration="0.000000"/>
    </timestep>
</fcd-export>
