<?xml version="1.0" encoding="UTF-8"?>

<!-- generated on 2026-07-17 15:41:32 by Eclipse SUMO sumo Version 1.20.0
<configuration xmlns:xsi="http://www.w3.org/2001/XMLSchema-instance" xsi:noNamespaceSchemaLocation="http://sumo.dlr.de/xsd/sumoConfiguration.xsd">

    <input>
        <net-file value="net.net.xml"/>
        <route-files value="rou.rou.xml"/>
    </input>

    <output>
        <precision value="6"/>
        <fcd-output value="golden.fcd.xml"/>
        <fcd-output.acceleration value="true"/>
        <summary-output value="golden.summary.xml"/>
        <statistic-output value="golden.statistic.xml"/>
        <save-state.times value="1"/>
        <save-state.files value="golden.state.xml"/>
    </output>

    <time>
        <begin value="0"/>
        <end value="300"/>
        <step-length value="1"/>
    </time>

    <processing>
        <step-method.ballistic value="false"/>
        <collision.action value="none"/>
        <time-to-teleport value="120"/>
        <default.action-step-length value="1"/>
        <default.speeddev value="0"/>
    </processing>

    <report>
        <no-step-log value="true"/>
    </report>

    <random_number>
        <seed value="42"/>
    </random_number>

</configuration>
-->

<fcd-export xmlns:xsi="http://www.w3.org/2001/XMLSchema-instance" xsi:noNamespaceSchemaLocation="http://sumo.dlr.de/xsd/fcd_file.xsd">
    <timestep time="0.000">
        <vehicle id="blocker" x="0.000000" y="-1.600000" angle="90.000000" type="car" speed="0.000000" pos="0.000000" lane="eA_0" slope="0.000000" acceleration="0.000000"/>
    </timestep>
    <timestep time="1.000">
        <vehicle id="blocker" x="2.600000" y="-1.600000" angle="90.000000" type="car" speed="2.600000" pos="2.600000" lane="eA_0" slope="0.000000" acceleration="2.600000"/>
    </timestep>
    <timestep time="2.000">
        <vehicle id="blocker" x="7.800000" y="-1.600000" angle="90.000000" type="car" speed="5.200000" pos="7.800000" lane="eA_0" slope="0.000000" acceleration="2.600000"/>
    </timestep>
    <timestep time="3.000">
        <vehicle id="blocker" x="15.600000" y="-1.600000" angle="90.000000" type="car" speed="7.800000" pos="15.600000" lane="eA_0" slope="0.000000" acceleration="2.600000"/>
    </timestep>
    <timestep time="4.000">
        <vehicle id="blocker" x="26.000000" y="-1.600000" angle="90.000000" type="car" speed="10.400000" pos="26.000000" lane="eA_0" slope="0.000000" acceleration="2.600000"/>
    </timestep>
    <timestep time="5.000">
        <vehicle id="blocker" x="39.000000" y="-1.600000" angle="90.000000" type="car" speed="13.000000" pos="39.000000" lane="eA_0" slope="0.000000" acceleration="2.600000"/>
        <vehicle id="follower" x="0.000000" y="-1.600000" angle="90.000000" type="car" speed="0.000000" pos="0.000000" lane="eA_0" slope="0.000000" acceleration="0.000000"/>
    </timestep>
    <timestep time="6.000">
        <vehicle id="blocker" x="52.890000" y="-1.600000" angle="90.000000" type="car" speed="13.890000" pos="52.890000" lane="eA_0" slope="0.000000" acceleration="0.890000"/>
        <vehicle id="follower" x="2.600000" y="-1.600000" angle="90.000000" type="car" speed="2.600000" pos="2.600000" lane="eA_0" slope="0.000000" acceleration="2.600000"/>
    </timestep>
    <timestep time="7.000">
        <vehicle id="blocker" x="66.780000" y="-1.600000" angle="90.000000" type="car" speed="13.890000" pos="66.780000" lane="eA_0" slope="0.000000" acceleration="0.000000"/>
        <vehicle id="follower" x="7.800000" y="-1.600000" angle="90.000000" type="car" speed="5.200000" pos="7.800000" lane="eA_0" slope="0.000000" acceleration="2.600000"/>
    </timestep>
    <timestep time="8.000">
        <vehicle id="blocker" x="80.670000" y="-1.600000" angle="90.000000" type="car" speed="13.890000" pos="80.670000" lane="eA_0" slope="0.000000" acceleration="0.000000"/>
        <vehicle id="follower" x="15.600000" y="-1.600000" angle="90.000000" type="car" speed="7.800000" pos="15.600000" lane="eA_0" slope="0.000000" acceleration="2.600000"/>
    </timestep>
    <timestep time="9.000">
        <vehicle id="blocker" x="94.560000" y="-1.600000" angle="90.000000" type="car" speed="13.890000" pos="94.560000" lane="eA_0" slope="0.000000" acceleration="0.000000"/>
        <vehicle id="follower" x="26.000000" y="-1.600000" angle="90.000000" type="car" speed="10.400000" pos="26.000000" lane="eA_0" slope="0.000000" acceleration="2.600000"/>
    </timestep>
    <timestep time="10.000">
        <vehicle id="blocker" x="108.450000" y="-1.600000" angle="90.000000" type="car" speed="13.890000" pos="108.450000" lane="eA_0" slope="0.000000" acceleration="0.000000"/>
        <vehicle id="follower" x="39.000000" y="-1.600000" angle="90.000000" type="car" speed="13.000000" pos="39.000000" lane="eA_0" slope="0.000000" acceleration="2.600000"/>
    </timestep>
    <timestep time="11.000">
        <vehicle id="blocker" x="122.340000" y="-1.600000" angle="90.000000" type="car" speed="13.890000" pos="122.340000" lane="eA_0" slope="0.000000" acceleration="0.000000"/>
        <vehicle id="follower" x="52.890000" y="-1.600000" angle="90.000000" type="car" speed="13.890000" pos="52.890000" lane="eA_0" slope="0.000000" acceleration="0.890000"/>
    </timestep>
    <timestep time="12.000">
        <vehicle id="blocker" x="136.230000" y="-1.600000" angle="90.000000" type="car" speed="13.890000" pos="136.230000" lane="eA_0" slope="0.000000" acceleration="0.000000"/>
        <vehicle id="follower" x="66.780000" y="-1.600000" angle="90.000000" type="car" speed="13.890000" pos="66.780000" lane="eA_0" slope="0.000000" acceleration="0.000000"/>
    </timestep>
    <timestep time="13.000">
        <vehicle id="blocker" x="150.120000" y="-1.600000" angle="90.000000" type="car" speed="13.890000" pos="150.120000" lane="eA_0" slope="0.000000" acceleration="0.000000"/>
        <vehicle id="follower" x="80.670000" y="-1.600000" angle="90.000000" type="car" speed="13.890000" pos="80.670000" lane="eA_0" slope="0.000000" acceleration="0.000000"/>
    </timestep>
    <timestep time="14.000">
        <vehicle id="blocker" x="164.010000" y="-1.600000" angle="90.000000" type="car" speed="13.890000" pos="164.010000" lane="eA_0" slope="0.000000" acceleration="0.000000"/>
        <vehicle id="follower" x="94.560000" y="-1.600000" angle="90.000000" type="car" speed="13.890000" pos="94.560000" lane="eA_0" slope="0.000000" acceleration="0.000000"/>
    </timestep>
    <timestep time="15.000">
        <vehicle id="blocker" x="177.900000" y="-1.600000" angle="90.000000" type="car" speed="13.890000" pos="177.900000" lane="eA_0" slope="0.000000" acceleration="0.000000"/>
        <vehicle id="follower" x="108.450000" y="-1.600000" angle="90.000000" type="car" speed="13.890000" pos="108.450000" lane="eA_0" slope="0.000000" acceleration="0.000000"/>
    </timestep>
    <timestep time="16.000">
        <vehicle id="blocker" x="191.790000" y="-1.600000" angle="90.000000" type="car" speed="13.890000" pos="191.790000" lane="eA_0" slope="0.000000" acceleration="0.000000"/>
        <vehicle id="follower" x="122.340000" y="-1.600000" angle="90.000000" type="car" speed="13.890000" pos="122.340000" lane="eA_0" slope="0.000000" acceleration="0.000000"/>
    </timestep>
    <timestep time="17.000">
        <vehicle id="blocker" x="205.680000" y="-1.600000" angle="90.000000" type="car" speed="13.890000" pos="205.680000" lane="eA_0" slope="0.000000" acceleration="0.000000"/>
        <vehicle id="follower" x="136.230000" y="-1.600000" angle="90.000000" type="car" speed="13.890000" pos="136.230000" lane="eA_0" slope="0.000000" acceleration="0.000000"/>
    </timestep>
    <timestep time="18.000">
        <vehicle id="blocker" x="219.570000" y="-1.600000" angle="90.000000" type="car" speed="13.890000" pos="219.570000" lane="eA_0" slope="0.000000" acceleration="0.000000"/>
        <vehicle id="follower" x="150.120000" y="-1.600000" angle="90.000000" type="car" speed="13.890000" pos="150.120000" lane="eA_0" slope="0.000000" acceleration="0.000000"/>
    </timestep>
    <timestep time="19.000">
        <vehicle id="blocker" x="233.460000" y="-1.600000" angle="90.000000" type="car" speed="13.890000" pos="233.460000" lane="eA_0" slope="0.000000" acceleration="0.000000"/>
        <vehicle id="follower" x="164.010000" y="-1.600000" angle="90.000000" type="car" speed="13.890000" pos="164.010000" lane="eA_0" slope="0.000000" acceleration="0.000000"/>
    </timestep>
    <timestep time="20.000">
        <vehicle id="blocker" x="247.350000" y="-1.600000" angle="90.000000" type="car" speed="13.890000" pos="247.350000" lane="eA_0" slope="0.000000" acceleration="0.000000"/>
        <vehicle id="follower" x="177.900000" y="-1.600000" angle="90.000000" type="car" speed="13.890000" pos="177.900000" lane="eA_0" slope="0.000000" acceleration="0.000000"/>
    </timestep>
    <timestep time="21.000">
        <vehicle id="blocker" x="261.240000" y="-1.600000" angle="90.000000" type="car" speed="13.890000" pos="261.240000" lane="eA_0" slope="0.000000" acceleration="0.000000"/>
        <vehicle id="follower" x="191.790000" y="-1.600000" angle="90.000000" type="car" speed="13.890000" pos="191.790000" lane="eA_0" slope="0.000000" acceleration="0.000000"/>
    </timestep>
    <timestep time="22.000">
        <vehicle id="blocker" x="275.130000" y="-1.600000" angle="90.000000" type="car" speed="13.890000" pos="275.130000" lane="eA_0" slope="0.000000" acceleration="0.000000"/>
        <vehicle id="follower" x="205.680000" y="-1.600000" angle="90.000000" type="car" speed="13.890000" pos="205.680000" lane="eA_0" slope="0.000000" acceleration="0.000000"/>
    </timestep>
    <timestep time="23.000">
        <vehicle id="blocker" x="289.020000" y="-1.600000" angle="90.000000" type="car" speed="13.890000" pos="289.020000" lane="eA_0" slope="0.000000" acceleration="0.000000"/>
        <vehicle id="follower" x="219.570000" y="-1.600000" angle="90.000000" type="car" speed="13.890000" pos="219.570000" lane="eA_0" slope="0.000000" acceleration="0.000000"/>
    </timestep>
    <timestep time="24.000">
        <vehicle id="blocker" x="302.910000" y="-1.600000" angle="90.000000" type="car" speed="13.890000" pos="302.910000" lane="eA_0" slope="0.000000" acceleration="0.000000"/>
        <vehicle id="follower" x="233.460000" y="-1.600000" angle="90.000000" type="car" speed="13.890000" pos="233.460000" lane="eA_0" slope="0.000000" acceleration="0.000000"/>
    </timestep>
    <timestep time="25.000">
        <vehicle id="blocker" x="316.800000" y="-1.600000" angle="90.000000" type="car" speed="13.890000" pos="316.800000" lane="eA_0" slope="0.000000" acceleration="0.000000"/>
        <vehicle id="follower" x="247.350000" y="-1.600000" angle="90.000000" type="car" speed="13.890000" pos="247.350000" lane="eA_0" slope="0.000000" acceleration="0.000000"/>
    </timestep>
    <timestep time="26.000">
        <vehicle id="blocker" x="330.690000" y="-1.600000" angle="90.000000" type="car" speed="13.890000" pos="330.690000" lane="eA_0" slope="0.000000" acceleration="0.000000"/>
        <vehicle id="follower" x="261.240000" y="-1.600000" angle="90.000000" type="car" speed="13.890000" pos="261.240000" lane="eA_0" slope="0.000000" acceleration="0.000000"/>
    </timestep>
    <timestep time="27.000">
        <vehicle id="blocker" x="344.580000" y="-1.600000" angle="90.000000" type="car" speed="13.890000" pos="344.580000" lane="eA_0" slope="0.000000" acceleration="0.000000"/>
        <vehicle id="follower" x="275.130000" y="-1.600000" angle="90.000000" type="car" speed="13.890000" pos="275.130000" lane="eA_0" slope="0.000000" acceleration="0.000000"/>
    </timestep>
    <timestep time="28.000">
        <vehicle id="blocker" x="358.470000" y="-1.600000" angle="90.000000" type="car" speed="13.890000" pos="358.470000" lane="eA_0" slope="0.000000" acceleration="0.000000"/>
        <vehicle id="follower" x="289.020000" y="-1.600000" angle="90.000000" type="car" speed="13.890000" pos="289.020000" lane="eA_0" slope="0.000000" acceleration="0.000000"/>
    </timestep>
    <timestep time="29.000">
        <vehicle id="blocker" x="372.360000" y="-1.600000" angle="90.000000" type="car" speed="13.890000" pos="372.360000" lane="eA_0" slope="0.000000" acceleration="0.000000"/>
        <vehicle id="follower" x="302.910000" y="-1.600000" angle="90.000000" type="car" speed="13.890000" pos="302.910000" lane="eA_0" slope="0.000000" acceleration="0.000000"/>
    </timestep>
    <timestep time="30.000">
        <vehicle id="blocker" x="386.250000" y="-1.600000" angle="90.000000" type="car" speed="13.890000" pos="386.250000" lane="eA_0" slope="0.000000" acceleration="0.000000"/>
        <vehicle id="follower" x="316.800000" y="-1.600000" angle="90.000000" type="car" speed="13.890000" pos="316.800000" lane="eA_0" slope="0.000000" acceleration="0.000000"/>
    </timestep>
    <timestep time="31.000">
        <vehicle id="blocker" x="400.140000" y="-1.600000" angle="90.000000" type="car" speed="13.890000" pos="400.140000" lane="eA_0" slope="0.000000" acceleration="0.000000"/>
        <vehicle id="follower" x="330.690000" y="-1.600000" angle="90.000000" type="car" speed="13.890000" pos="330.690000" lane="eA_0" slope="0.000000" acceleration="0.000000"/>
    </timestep>
    <timestep time="32.000">
        <vehicle id="blocker" x="414.030000" y="-1.600000" angle="90.000000" type="car" speed="13.890000" pos="414.030000" lane="eA_0" slope="0.000000" acceleration="0.000000"/>
        <vehicle id="follower" x="344.580000" y="-1.600000" angle="90.000000" type="car" speed="13.890000" pos="344.580000" lane="eA_0" slope="0.000000" acceleration="0.000000"/>
    </timestep>
    <timestep time="33.000">
        <vehicle id="blocker" x="427.920000" y="-1.600000" angle="90.000000" type="car" speed="13.890000" pos="427.920000" lane="eA_0" slope="0.000000" acceleration="0.000000"/>
        <vehicle id="follower" x="358.470000" y="-1.600000" angle="90.000000" type="car" speed="13.890000" pos="358.470000" lane="eA_0" slope="0.000000" acceleration="0.000000"/>
    </timestep>
    <timestep time="34.000">
        <vehicle id="blocker" x="441.810000" y="-1.600000" angle="90.000000" type="car" speed="13.890000" pos="441.810000" lane="eA_0" slope="0.000000" acceleration="0.000000"/>
        <vehicle id="follower" x="372.360000" y="-1.600000" angle="90.000000" type="car" speed="13.890000" pos="372.360000" lane="eA_0" slope="0.000000" acceleration="0.000000"/>
    </timestep>
    <timestep time="35.000">
        <vehicle id="blocker" x="455.700000" y="-1.600000" angle="90.000000" type="car" speed="13.890000" pos="455.700000" lane="eA_0" slope="0.000000" acceleration="0.000000"/>
        <vehicle id="follower" x="386.250000" y="-1.600000" angle="90.000000" type="car" speed="13.890000" pos="386.250000" lane="eA_0" slope="0.000000" acceleration="0.000000"/>
    </timestep>
    <timestep time="36.000">
        <vehicle id="blocker" x="469.590000" y="-1.600000" angle="90.000000" type="car" speed="13.890000" pos="469.590000" lane="eA_0" slope="0.000000" acceleration="0.000000"/>
        <vehicle id="follower" x="400.140000" y="-1.600000" angle="90.000000" type="car" speed="13.890000" pos="400.140000" lane="eA_0" slope="0.000000" acceleration="0.000000"/>
    </timestep>
    <timestep time="37.000">
        <vehicle id="blocker" x="483.480000" y="-1.600000" angle="90.000000" type="car" speed="13.890000" pos="483.480000" lane="eA_0" slope="0.000000" acceleration="0.000000"/>
        <vehicle id="follower" x="414.030000" y="-1.600000" angle="90.000000" type="car" speed="13.890000" pos="414.030000" lane="eA_0" slope="0.000000" acceleration="0.000000"/>
    </timestep>
    <timestep time="38.000">
        <vehicle id="blocker" x="497.370000" y="-1.600000" angle="90.000000" type="car" speed="13.890000" pos="497.370000" lane="eA_0" slope="0.000000" acceleration="0.000000"/>
        <vehicle id="follower" x="427.920000" y="-1.600000" angle="90.000000" type="car" speed="13.890000" pos="427.920000" lane="eA_0" slope="0.000000" acceleration="0.000000"/>
    </timestep>
    <timestep time="39.000">
        <vehicle id="blocker" x="511.260000" y="-1.600000" angle="90.000000" type="car" speed="13.890000" pos="511.260000" lane="eA_0" slope="0.000000" acceleration="0.000000"/>
        <vehicle id="follower" x="441.810000" y="-1.600000" angle="90.000000" type="car" speed="13.890000" pos="441.810000" lane="eA_0" slope="0.000000" acceleration="0.000000"/>
    </timestep>
    <timestep time="40.000">
        <vehicle id="blocker" x="525.150000" y="-1.600000" angle="90.000000" type="car" speed="13.890000" pos="525.150000" lane="eA_0" slope="0.000000" acceleration="0.000000"/>
        <vehicle id="follower" x="455.700000" y="-1.600000" angle="90.000000" type="car" speed="13.890000" pos="455.700000" lane="eA_0" slope="0.000000" acceleration="0.000000"/>
    </timestep>
    <timestep time="41.000">
        <vehicle id="blocker" x="539.040000" y="-1.600000" angle="90.000000" type="car" speed="13.890000" pos="539.040000" lane="eA_0" slope="0.000000" acceleration="0.000000"/>
        <vehicle id="follower" x="469.590000" y="-1.600000" angle="90.000000" type="car" speed="13.890000" pos="469.590000" lane="eA_0" slope="0.000000" acceleration="0.000000"/>
    </timestep>
    <timestep time="42.000">
        <vehicle id="blocker" x="552.930000" y="-1.600000" angle="90.000000" type="car" speed="13.890000" pos="552.930000" lane="eA_0" slope="0.000000" acceleration="0.000000"/>
        <vehicle id="follower" x="483.480000" y="-1.600000" angle="90.000000" type="car" speed="13.890000" pos="483.480000" lane="eA_0" slope="0.000000" acceleration="0.000000"/>
    </timestep>
    <timestep time="43.000">
        <vehicle id="blocker" x="566.820000" y="-1.600000" angle="90.000000" type="car" speed="13.890000" pos="566.820000" lane="eA_0" slope="0.000000" acceleration="0.000000"/>
        <vehicle id="follower" x="497.370000" y="-1.600000" angle="90.000000" type="car" speed="13.890000" pos="497.370000" lane="eA_0" slope="0.000000" acceleration="0.000000"/>
    </timestep>
    <timestep time="44.000">
        <vehicle id="blocker" x="580.710000" y="-1.600000" angle="90.000000" type="car" speed="13.890000" pos="580.710000" lane="eA_0" slope="0.000000" acceleration="0.000000"/>
        <vehicle id="follower" x="511.260000" y="-1.600000" angle="90.000000" type="car" speed="13.890000" pos="511.260000" lane="eA_0" slope="0.000000" acceleration="0.000000"/>
    </timestep>
    <timestep time="45.000">
        <vehicle id="blocker" x="594.600000" y="-1.600000" angle="90.000000" type="car" speed="13.890000" pos="594.600000" lane="eA_0" slope="0.000000" acceleration="0.000000"/>
        <vehicle id="follower" x="525.150000" y="-1.600000" angle="90.000000" type="car" speed="13.890000" pos="525.150000" lane="eA_0" slope="0.000000" acceleration="0.000000"/>
    </timestep>
    <timestep time="46.000">
        <vehicle id="blocker" x="608.490000" y="-1.600000" angle="90.000000" type="car" speed="13.890000" pos="608.490000" lane="eA_0" slope="0.000000" acceleration="0.000000"/>
        <vehicle id="follower" x="539.040000" y="-1.600000" angle="90.000000" type="car" speed="13.890000" pos="539.040000" lane="eA_0" slope="0.000000" acceleration="0.000000"/>
    </timestep>
    <timestep time="47.000">
        <vehicle id="blocker" x="622.380000" y="-1.600000" angle="90.000000" type="car" speed="13.890000" pos="622.380000" lane="eA_0" slope="0.000000" acceleration="0.000000"/>
        <vehicle id="follower" x="552.930000" y="-1.600000" angle="90.000000" type="car" speed="13.890000" pos="552.930000" lane="eA_0" slope="0.000000" acceleration="0.000000"/>
    </timestep>
    <timestep time="48.000">
        <vehicle id="blocker" x="636.270000" y="-1.600000" angle="90.000000" type="car" speed="13.890000" pos="636.270000" lane="eA_0" slope="0.000000" acceleration="0.000000"/>
        <vehicle id="follower" x="566.820000" y="-1.600000" angle="90.000000" type="car" speed="13.890000" pos="566.820000" lane="eA_0" slope="0.000000" acceleration="0.000000"/>
    </timestep>
    <timestep time="49.000">
        <vehicle id="blocker" x="650.160000" y="-1.600000" angle="90.000000" type="car" speed="13.890000" pos="650.160000" lane="eA_0" slope="0.000000" acceleration="0.000000"/>
        <vehicle id="follower" x="580.710000" y="-1.600000" angle="90.000000" type="car" speed="13.890000" pos="580.710000" lane="eA_0" slope="0.000000" acceleration="0.000000"/>
    </timestep>
    <timestep time="50.000">
        <vehicle id="blocker" x="664.050000" y="-1.600000" angle="90.000000" type="car" speed="13.890000" pos="664.050000" lane="eA_0" slope="0.000000" acceleration="0.000000"/>
        <vehicle id="follower" x="594.600000" y="-1.600000" angle="90.000000" type="car" speed="13.890000" pos="594.600000" lane="eA_0" slope="0.000000" acceleration="0.000000"/>
    </timestep>
    <timestep time="51.000">
        <vehicle id="blocker" x="677.940000" y="-1.600000" angle="90.000000" type="car" speed="13.890000" pos="677.940000" lane="eA_0" slope="0.000000" acceleration="0.000000"/>
        <vehicle id="follower" x="608.490000" y="-1.600000" angle="90.000000" type="car" speed="13.890000" pos="608.490000" lane="eA_0" slope="0.000000" acceleration="0.000000"/>
    </timestep>
    <timestep time="52.000">
        <vehicle id="blocker" x="691.830000" y="-1.600000" angle="90.000000" type="car" speed="13.890000" pos="691.830000" lane="eA_0" slope="0.000000" acceleration="0.000000"/>
        <vehicle id="follower" x="622.380000" y="-1.600000" angle="90.000000" type="car" speed="13.890000" pos="622.380000" lane="eA_0" slope="0.000000" acceleration="0.000000"/>
    </timestep>
    <timestep time="53.000">
        <vehicle id="blocker" x="705.720000" y="-1.600000" angle="90.000000" type="car" speed="13.890000" pos="705.720000" lane="eA_0" slope="0.000000" acceleration="0.000000"/>
        <vehicle id="follower" x="636.270000" y="-1.600000" angle="90.000000" type="car" speed="13.890000" pos="636.270000" lane="eA_0" slope="0.000000" acceleration="0.000000"/>
    </timestep>
    <timestep time="54.000">
        <vehicle id="blocker" x="719.610000" y="-1.600000" angle="90.000000" type="car" speed="13.890000" pos="719.610000" lane="eA_0" slope="0.000000" acceleration="0.000000"/>
        <vehicle id="follower" x="650.160000" y="-1.600000" angle="90.000000" type="car" speed="13.890000" pos="650.160000" lane="eA_0" slope="0.000000" acceleration="0.000000"/>
    </timestep>
    <timestep time="55.000">
        <vehicle id="blocker" x="733.500000" y="-1.600000" angle="90.000000" type="car" speed="13.890000" pos="733.500000" lane="eA_0" slope="0.000000" acceleration="0.000000"/>
        <vehicle id="follower" x="664.050000" y="-1.600000" angle="90.000000" type="car" speed="13.890000" pos="664.050000" lane="eA_0" slope="0.000000" acceleration="0.000000"/>
    </timestep>
    <timestep time="56.000">
        <vehicle id="blocker" x="747.390000" y="-1.600000" angle="90.000000" type="car" speed="13.890000" pos="747.390000" lane="eA_0" slope="0.000000" acceleration="0.000000"/>
        <vehicle id="follower" x="677.940000" y="-1.600000" angle="90.000000" type="car" speed="13.890000" pos="677.940000" lane="eA_0" slope="0.000000" acceleration="0.000000"/>
    </timestep>
    <timestep time="57.000">
        <vehicle id="blocker" x="761.280000" y="-1.600000" angle="90.000000" type="car" speed="13.890000" pos="761.280000" lane="eA_0" slope="0.000000" acceleration="0.000000"/>
        <vehicle id="follower" x="691.830000" y="-1.600000" angle="90.000000" type="car" speed="13.890000" pos="691.830000" lane="eA_0" slope="0.000000" acceleration="0.000000"/>
    </timestep>
    <timestep time="58.000">
        <vehicle id="blocker" x="775.170000" y="-1.600000" angle="90.000000" type="car" speed="13.890000" pos="775.170000" lane="eA_0" slope="0.000000" acceleration="0.000000"/>
        <vehicle id="follower" x="705.720000" y="-1.600000" angle="90.000000" type="car" speed="13.890000" pos="705.720000" lane="eA_0" slope="0.000000" acceleration="0.000000"/>
    </timestep>
    <timestep time="59.000">
        <vehicle id="blocker" x="789.060000" y="-1.600000" angle="90.000000" type="car" speed="13.890000" pos="789.060000" lane="eA_0" slope="0.000000" acceleration="0.000000"/>
        <vehicle id="follower" x="719.610000" y="-1.600000" angle="90.000000" type="car" speed="13.890000" pos="719.610000" lane="eA_0" slope="0.000000" acceleration="0.000000"/>
    </timestep>
    <timestep time="60.000">
        <vehicle id="blocker" x="802.950000" y="-1.600000" angle="90.000000" type="car" speed="13.890000" pos="802.950000" lane="eA_0" slope="0.000000" acceleration="0.000000"/>
        <vehicle id="follower" x="733.500000" y="-1.600000" angle="90.000000" type="car" speed="13.890000" pos="733.500000" lane="eA_0" slope="0.000000" acceleration="0.000000"/>
    </timestep>
    <timestep time="61.000">
        <vehicle id="blocker" x="816.840000" y="-1.600000" angle="90.000000" type="car" speed="13.890000" pos="816.840000" lane="eA_0" slope="0.000000" acceleration="0.000000"/>
        <vehicle id="follower" x="747.390000" y="-1.600000" angle="90.000000" type="car" speed="13.890000" pos="747.390000" lane="eA_0" slope="0.000000" acceleration="0.000000"/>
    </timestep>
    <timestep time="62.000">
        <vehicle id="blocker" x="830.730000" y="-1.600000" angle="90.000000" type="car" speed="13.890000" pos="830.730000" lane="eA_0" slope="0.000000" acceleration="0.000000"/>
        <vehicle id="follower" x="761.280000" y="-1.600000" angle="90.000000" type="car" speed="13.890000" pos="761.280000" lane="eA_0" slope="0.000000" acceleration="0.000000"/>
    </timestep>
    <timestep time="63.000">
        <vehicle id="blocker" x="844.620000" y="-1.600000" angle="90.000000" type="car" speed="13.890000" pos="844.620000" lane="eA_0" slope="0.000000" acceleration="0.000000"/>
        <vehicle id="follower" x="775.170000" y="-1.600000" angle="90.000000" type="car" speed="13.890000" pos="775.170000" lane="eA_0" slope="0.000000" acceleration="0.000000"/>
    </timestep>
    <timestep time="64.000">
        <vehicle id="blocker" x="858.510000" y="-1.600000" angle="90.000000" type="car" speed="13.890000" pos="858.510000" lane="eA_0" slope="0.000000" acceleration="0.000000"/>
        <vehicle id="follower" x="789.060000" y="-1.600000" angle="90.000000" type="car" speed="13.890000" pos="789.060000" lane="eA_0" slope="0.000000" acceleration="0.000000"/>
    </timestep>
    <timestep time="65.000">
        <vehicle id="blocker" x="872.400000" y="-1.600000" angle="90.000000" type="car" speed="13.890000" pos="872.400000" lane="eA_0" slope="0.000000" acceleration="0.000000"/>
        <vehicle id="follower" x="802.950000" y="-1.600000" angle="90.000000" type="car" speed="13.890000" pos="802.950000" lane="eA_0" slope="0.000000" acceleration="0.000000"/>
    </timestep>
    <timestep time="66.000">
        <vehicle id="blocker" x="886.290000" y="-1.600000" angle="90.000000" type="car" speed="13.890000" pos="886.290000" lane="eA_0" slope="0.000000" acceleration="0.000000"/>
        <vehicle id="follower" x="816.840000" y="-1.600000" angle="90.000000" type="car" speed="13.890000" pos="816.840000" lane="eA_0" slope="0.000000" acceleration="0.000000"/>
    </timestep>
    <timestep time="67.000">
        <vehicle id="blocker" x="900.180000" y="-1.600000" angle="90.000000" type="car" speed="13.890000" pos="900.180000" lane="eA_0" slope="0.000000" acceleration="0.000000"/>
        <vehicle id="follower" x="830.730000" y="-1.600000" angle="90.000000" type="car" speed="13.890000" pos="830.730000" lane="eA_0" slope="0.000000" acceleration="0.000000"/>
    </timestep>
    <timestep time="68.000">
        <vehicle id="blocker" x="914.070000" y="-1.600000" angle="90.000000" type="car" speed="13.890000" pos="914.070000" lane="eA_0" slope="0.000000" acceleration="0.000000"/>
        <vehicle id="follower" x="844.620000" y="-1.600000" angle="90.000000" type="car" speed="13.890000" pos="844.620000" lane="eA_0" slope="0.000000" acceleration="0.000000"/>
    </timestep>
    <timestep time="69.000">
        <vehicle id="blocker" x="927.960000" y="-1.600000" angle="90.000000" type="car" speed="13.890000" pos="927.960000" lane="eA_0" slope="0.000000" acceleration="0.000000"/>
        <vehicle id="follower" x="858.510000" y="-1.600000" angle="90.000000" type="car" speed="13.890000" pos="858.510000" lane="eA_0" slope="0.000000" acceleration="0.000000"/>
    </timestep>
    <timestep time="70.000">
        <vehicle id="blocker" x="941.850000" y="-1.600000" angle="90.000000" type="car" speed="13.890000" pos="941.850000" lane="eA_0" slope="0.000000" acceleration="0.000000"/>
        <vehicle id="follower" x="872.400000" y="-1.600000" angle="90.000000" type="car" speed="13.890000" pos="872.400000" lane="eA_0" slope="0.000000" acceleration="0.000000"/>
    </timestep>
    <timestep time="71.000">
        <vehicle id="blocker" x="955.740000" y="-1.600000" angle="90.000000" type="car" speed="13.890000" pos="955.740000" lane="eA_0" slope="0.000000" acceleration="0.000000"/>
        <vehicle id="follower" x="886.290000" y="-1.600000" angle="90.000000" type="car" speed="13.890000" pos="886.290000" lane="eA_0" slope="0.000000" acceleration="0.000000"/>
    </timestep>
    <timestep time="72.000">
        <vehicle id="blocker" x="969.630000" y="-1.600000" angle="90.000000" type="car" speed="13.890000" pos="969.630000" lane="eA_0" slope="0.000000" acceleration="0.000000"/>
        <vehicle id="follower" x="900.180000" y="-1.600000" angle="90.000000" type="car" speed="13.890000" pos="900.180000" lane="eA_0" slope="0.000000" acceleration="0.000000"/>
    </timestep>
    <timestep time="73.000">
        <vehicle id="blocker" x="980.920000" y="-1.600000" angle="90.000000" type="car" speed="11.290000" pos="980.920000" lane="eA_0" slope="0.000000" acceleration="-2.600000"/>