<?xml version="1.0" encoding="UTF-8"?>

<!-- generated on 2026-07-07 10:51:36 by Eclipse SUMO sumo Version 1.20.0
<configuration xmlns:xsi="http://www.w3.org/2001/XMLSchema-instance" xsi:noNamespaceSchemaLocation="http://sumo.dlr.de/xsd/sumoConfiguration.xsd">

    <input>
        <net-file value="net.net.xml"/>
        <route-files value="rou.rou.xml"/>
    </input>

    <output>
        <precision value="6"/>
        <fcd-output value="golden.fcd.xml"/>
        <fcd-output.acceleration value="true"/>
    </output>

    <time>
        <begin value="0"/>
        <end value="200"/>
        <step-length value="1"/>
    </time>

    <processing>
        <step-method.ballistic value="false"/>
        <collision.action value="none"/>
        <time-to-teleport value="-1"/>
        <lanechange.duration value="0"/>
        <default.action-step-length value="1"/>
        <default.speeddev value="0"/>
    </processing>

    <report>
        <no-step-log value="true"/>
    </report>

    <random_number>
        <seed value="42"/>
    </random_number>

</configuration>
-->

<fcd-export xmlns:xsi="http://www.w3.org/2001/XMLSchema-instance" xsi:noNamespaceSchemaLocation="http://sumo.dlr.de/xsd/fcd_file.xsd">
    <timestep time="0.000">
        <vehicle id="follow" x="0.000000" y="-4.800000" angle="90.000000" type="fast" speed="0.000000" pos="0.000000" lane="e0_0" slope="0.000000" acceleration="0.000000"/>
        <vehicle id="lead" x="100.000000" y="-4.800000" angle="90.000000" type="slow" speed="0.000000" pos="100.000000" lane="e0_0" slope="0.000000" acceleration="0.000000"/>
    </timestep>
    <timestep time="1.000">
        <vehicle id="follow" x="2.600000" y="-4.800000" angle="90.000000" type="fast" speed="2.600000" pos="2.600000" lane="e0_0" slope="0.000000" acceleration="2.600000"/>
        <vehicle id="lead" x="102.600000" y="-4.800000" angle="90.000000" type="slow" speed="2.600000" pos="102.600000" lane="e0_0" slope="0.000000" acceleration="2.600000"/>
    </timestep>
    <timestep time="2.000">
        <vehicle id="follow" x="7.800000" y="-4.800000" angle="90.000000" type="fast" speed="5.200000" pos="7.800000" lane="e0_0" slope="0.000000" acceleration="2.600000"/>
        <vehicle id="lead" x="107.600000" y="-4.800000" angle="90.000000" type="slow" speed="5.000000" pos="107.600000" lane="e0_0" slope="0.000000" acceleration="2.400000"/>
    </timestep>
    <timestep time="3.000">
        <vehicle id="follow" x="15.600000" y="-4.800000" angle="90.000000" type="fast" speed="7.800000" pos="15.600000" lane="e0_0" slope="0.000000" acceleration="2.600000"/>
        <vehicle id="lead" x="112.600000" y="-4.800000" angle="90.000000" type="slow" speed="5.000000" pos="112.600000" lane="e0_0" slope="0.000000" acceleration="0.000000"/>
    </timestep>
    <timestep time="4.000">
        <vehicle id="follow" x="26.000000" y="-4.800000" angle="90.000000" type="fast" speed="10.400000" pos="26.000000" lane="e0_0" slope="0.000000" acceleration="2.600000"/>
        <vehicle id="lead" x="117.600000" y="-4.800000" angle="90.000000" type="slow" speed="5.000000" pos="117.600000" lane="e0_0" slope="0.000000" acceleration="0.000000"/>
    </timestep>
    <timestep time="5.000">
        <vehicle id="follow" x="39.000000" y="-4.800000" angle="90.000000" type="fast" speed="13.000000" pos="39.000000" lane="e0_0" slope="0.000000" acceleration="2.600000"/>
        <vehicle id="lead" x="122.600000" y="-4.800000" angle="90.000000" type="slow" speed="5.000000" pos="122.600000" lane="e0_0" slope="0.000000" acceleration="0.000000"/>
    </timestep>
    <timestep time="6.000">
        <vehicle id="follow" x="52.890000" y="-4.800000" angle="90.000000" type="fast" speed="13.890000" pos="52.890000" lane="e0_0" slope="0.000000" acceleration="0.890000"/>
        <vehicle id="lead" x="127.600000" y="-4.800000" angle="90.000000" type="slow" speed="5.000000" pos="127.600000" lane="e0_0" slope="0.000000" acceleration="0.000000"/>
    </timestep>
    <timestep time="7.000">
        <vehicle id="follow" x="66.780000" y="-4.800000" angle="90.000000" type="fast" speed="13.890000" pos="66.780000" lane="e0_0" slope="0.000000" acceleration="0.000000"/>
        <vehicle id="lead" x="132.600000" y="-4.800000" angle="90.000000" type="slow" speed="5.000000" pos="132.600000" lane="e0_0" slope="0.000000" acceleration="0.000000"/>
    </timestep>
    <timestep time="8.000">
        <vehicle id="follow" x="80.670000" y="-4.800000" angle="90.000000" type="fast" speed="13.890000" pos="80.670000" lane="e0_0" slope="0.000000" acceleration="0.000000"/>
        <vehicle id="lead" x="137.600000" y="-4.800000" angle="90.000000" type="slow" speed="5.000000" pos="137.600000" lane="e0_0" slope="0.000000" acceleration="0.000000"/>
    </timestep>
    <timestep time="9.000">
        <vehicle id="follow" x="94.560000" y="-4.800000" angle="90.000000" type="fast" speed="13.890000" pos="94.560000" lane="e0_0" slope="0.000000" acceleration="0.000000"/>
        <vehicle id="lead" x="142.600000" y="-4.800000" angle="90.000000" type="slow" speed="5.000000" pos="142.600000" lane="e0_0" slope="0.000000" acceleration="0.000000"/>
    </timestep>
    <timestep time="10.000">
        <vehicle id="follow" x="108.450000" y="-4.800000" angle="90.000000" type="fast" speed="13.890000" pos="108.450000" lane="e0_0" slope="0.000000" acceleration="0.000000"/>
        <vehicle id="lead" x="147.600000" y="-4.800000" angle="90.000000" type="slow" speed="5.000000" pos="147.600000" lane="e0_0" slope="0.000000" acceleration="0.000000"/>
    </timestep>
    <timestep time="11.000">
        <vehicle id="follow" x="122.340000" y="-4.800000" angle="90.000000" type="fast" speed="13.890000" pos="122.340000" lane="e0_0" slope="0.000000" acceleration="0.000000"/>
        <vehicle id="lead" x="152.600000" y="-4.800000" angle="90.000000" type="slow" speed="5.000000" pos="152.600000" lane="e0_0" slope="0.000000" acceleration="0.000000"/>
    </timestep>
    <timestep time="12.000">
        <vehicle id="follow" x="134.593000" y="-1.600000" angle="90.000000" type="fast" speed="12.253000" pos="134.593000" lane="e0_1" slope="0.000000" acceleration="-1.637000"/>
        <vehicle id="lead" x="157.600000" y="-4.800000" angle="90.000000" type="slow" speed="5.000000" pos="157.600000" lane="e0_0" slope="0.000000" acceleration="0.000000"/>
    </timestep>
    <timestep time="13.000">
        <vehicle id="follow" x="148.483000" y="-1.600000" angle="90.000000" type="fast" speed="13.890000" pos="148.483000" lane="e0_1" slope="0.000000" acceleration="1.637000"/>
        <vehicle id="lead" x="162.600000" y="-4.800000" angle="90.000000" type="slow" speed="5.000000" pos="162.600000" lane="e0_0" slope="0.000000" acceleration="0.000000"/>
    </timestep>
    <timestep time="14.000">
        <vehicle id="follow" x="162.373000" y="-1.600000" angle="90.000000" type="fast" speed="13.890000" pos="162.373000" lane="e0_1" slope="0.000000" acceleration="0.000000"/>
        <vehicle id="lead" x="167.600000" y="-4.800000" angle="90.000000" type="slow" speed="5.000000" pos="167.600000" lane="e0_0" slope="0.000000" acceleration="0.000000"/>
    </timestep>
    <timestep time="15.000">
        <vehicle id="follow" x="176.263000" y="-1.600000" angle="90.000000" type="fast" speed="13.890000" pos="176.263000" lane="e0_1" slope="0.000000" acceleration="0.000000"/>
        <vehicle id="lead" x="172.600000" y="-4.800000" angle="90.000000" type="slow" speed="5.000000" pos="172.600000" lane="e0_0" slope="0.000000" acceleration="0.000000"/>
    </timestep>
    <timestep time="16.000">
        <vehicle id="follow" x="190.153000" y="-1.600000" angle="90.000000" type="fast" speed="13.890000" pos="190.153000" lane="e0_1" slope="0.000000" acceleration="0.000000"/>
        <vehicle id="lead" x="177.600000" y="-4.800000" angle="90.000000" type="slow" speed="5.000000" pos="177.600000" lane="e0_0" slope="0.000000" acceleration="0.000000"/>
    </timestep>
    <timestep time="17.000">
        <vehicle id="follow" x="204.043000" y="-1.600000" angle="90.000000" type="fast" speed="13.890000" pos="204.043000" lane="e0_1" slope="0.000000" acceleration="0.000000"/>
        <vehicle id="lead" x="182.600000" y="-4.800000" angle="90.000000" type="slow" speed="5.000000" pos="182.600000" lane="e0_0" slope="0.000000" acceleration="0.000000"/>
    </timestep>
    <timestep time="18.000">
        <vehicle id="follow" x="217.933000" y="-1.600000" angle="90.000000" type="fast" speed="13.890000" pos="217.933000" lane="e0_1" slope="0.000000" acceleration="0.000000"/>
        <vehicle id="lead" x="187.600000" y="-4.800000" angle="90.000000" type="slow" speed="5.000000" pos="187.600000" lane="e0_0" slope="0.000000" acceleration="0.000000"/>
    </timestep>
    <timestep time="19.000">
        <vehicle id="follow" x="231.823000" y="-1.600000" angle="90.000000" type="fast" speed="13.890000" pos="231.823000" lane="e0_1" slope="0.000000" acceleration="0.000000"/>
        <vehicle id="lead" x="192.600000" y="-4.800000" angle="90.000000" type="slow" speed="5.000000" pos="192.600000" lane="e0_0" slope="0.000000" acceleration="0.000000"/>
    </timestep>
    <timestep time="20.000">
        <vehicle id="follow" x="245.713000" y="-4.800000" angle="90.000000" type="fast" speed="13.890000" pos="245.713000" lane="e0_0" slope="0.000000" acceleration="0.000000"/>
        <vehicle id="lead" x="197.600000" y="-4.800000" angle="90.000000" type="slow" speed="5.000000" pos="197.600000" lane="e0_0" slope="0.000000" acceleration="0.000000"/>
    </timestep>
    <timestep time="21.000">
        <vehicle id="follow" x="259.603000" y="-4.800000" angle="90.000000" type="fast" speed="13.890000" pos="259.603000" lane="e0_0" slope="0.000000" acceleration="0.000000"/>
        <vehicle id="lead" x="202.600000" y="-4.800000" angle="90.000000" type="slow" speed="5.000000" pos="202.600000" lane="e0_0" slope="0.000000" acceleration="0.000000"/>
    </timestep>
    <timestep time="22.000">
        <vehicle id="follow" x="273.493000" y="-4.800000" angle="90.000000" type="fast" speed="13.890000" pos="273.493000" lane="e0_0" slope="0.000000" acceleration="0.000000"/>
        <vehicle id="lead" x="207.600000" y="-4.800000" angle="90.000000" type="slow" speed="5.000000" pos="207.600000" lane="e0_0" slope="0.000000" acceleration="0.000000"/>
    </timestep>
    <timestep time="23.000">
        <vehicle id="follow" x="287.383000" y="-4.800000" angle="90.000000" type="fast" speed="13.890000" pos="287.383000" lane="e0_0" slope="0.000000" acceleration="0.000000"/>
        <vehicle id="lead" x="212.600000" y="-4.800000" angle="90.000000" type="slow" speed="5.000000" pos="212.600000" lane="e0_0" slope="0.000000" acceleration="0.000000"/>
    </timestep>
    <timestep time="24.000">
        <vehicle id="follow" x="301.273000" y="-4.800000" angle="90.000000" type="fast" speed="13.890000" pos="301.273000" lane="e0_0" slope="0.000000" acceleration="0.000000"/>
        <vehicle id="lead" x="217.600000" y="-4.800000" angle="90.000000" type="slow" speed="5.000000" pos="217.600000" lane="e0_0" slope="0.000000" acceleration="0.000000"/>
    </timestep>
    <timestep time="25.000">
        <vehicle id="follow" x="315.163000" y="-4.800000" angle="90.000000" type="fast" speed="13.890000" pos="315.163000" lane="e0_0" slope="0.000000" acceleration="0.000000"/>
        <vehicle id="lead" x="222.600000" y="-4.800000" angle="90.000000" type="slow" speed="5.000000" pos="222.600000" lane="e0_0" slope="0.000000" acceleration="0.000000"/>
    </timestep>
    <timestep time="26.000">
        <vehicle id="follow" x="329.053000" y="-4.800000" angle="90.000000" type="fast" speed="13.890000" pos="329.053000" lane="e0_0" slope="0.000000" acceleration="0.000000"/>
        <vehicle id="lead" x="227.600000" y="-4.800000" angle="90.000000" type="slow" speed="5.000000" pos="227.600000" lane="e0_0" slope="0.000000" acceleration="0.000000"/>
    </timestep>
    <timestep time="27.000">
        <vehicle id="follow" x="342.943000" y="-4.800000" angle="90.000000" type="fast" speed="13.890000" pos="342.943000" lane="e0_0" slope="0.000000" acceleration="0.000000"/>
        <vehicle id="lead" x="232.600000" y="-4.800000" angle="90.000000" type="slow" speed="5.000000" pos="232.600000" lane="e0_0" slope="0.000000" acceleration="0.000000"/>
    </timestep>
    <timestep time="28.000">
        <vehicle id="follow" x="356.833000" y="-4.800000" angle="90.000000" type="fast" speed="13.890000" pos="356.833000" lane="e0_0" slope="0.000000" acceleration="0.000000"/>
        <vehicle id="lead" x="237.600000" y="-4.800000" angle="90.000000" type="slow" speed="5.000000" pos="237.600000" lane="e0_0" slope="0.000000" acceleration="0.000000"/>
    </timestep>
    <timestep time="29.000">
        <vehicle id="follow" x="370.723000" y="-4.800000" angle="90.000000" type="fast" speed="13.890000" pos="370.723000" lane="e0_0" slope="0.000000" acceleration="0.000000"/>
        <vehicle id="lead" x="242.600000" y="-4.800000" angle="90.000000" type="slow" speed="5.000000" pos="242.600000" lane="e0_0" slope="0.000000" acceleration="0.000000"/>
    </timestep>
    <timestep time="30.000">
        <vehicle id="follow" x="384.613000" y="-4.800000" angle="90.000000" type="fast" speed="13.890000" pos="384.613000" lane="e0_0" slope="0.000000" acceleration="0.000000"/>
        <vehicle id="lead" x="247.600000" y="-4.800000" angle="90.000000" type="slow" speed="5.000000" pos="247.600000" lane="e0_0" slope="0.000000" acceleration="0.000000"/>
    </timestep>
    <timestep time="31.000">
        <vehicle id="follow" x="398.503000" y="-4.800000" angle="90.000000" type="fast" speed="13.890000" pos="398.503000" lane="e0_0" slope="0.000000" acceleration="0.000000"/>
        <vehicle id="lead" x="252.600000" y="-4.800000" angle="90.000000" type="slow" speed="5.000000" pos="252.600000" lane="e0_0" slope="0.000000" acceleration="0.000000"/>
    </timestep>
    <timestep time="32.000">
        <vehicle id="follow" x="412.393000" y="-4.800000" angle="90.000000" type="fast" speed="13.890000" pos="412.393000" lane="e0_0" slope="0.000000" acceleration="0.000000"/>
        <vehicle id="lead" x="257.600000" y="-4.800000" angle="90.000000" type="slow" speed="5.000000" pos="257.600000" lane="e0_0" slope="0.000000" acceleration="0.000000"/>
    </timestep>
    <timestep time="33.000">
        <vehicle id="follow" x="426.283000" y="-4.800000" angle="90.000000" type="fast" speed="13.890000" pos="426.283000" lane="e0_0" slope="0.000000" acceleration="0.000000"/>
        <vehicle id="lead" x="262.600000" y="-4.800000" angle="90.000000" type="slow" speed="5.000000" pos="262.600000" lane="e0_0" slope="0.000000" acceleration="0.000000"/>
    </timestep>
    <timestep time="34.000">
        <vehicle id="follow" x="440.173000" y="-4.800000" angle="90.000000" type="fast" speed="13.890000" pos="440.173000" lane="e0_0" slope="0.000000" acceleration="0.000000"/>
        <vehicle id="lead" x="267.600000" y="-4.800000" angle="90.000000" type="slow" speed="5.000000" pos="267.600000" lane="e0_0" slope="0.000000" acceleration="0.000000"/>
    </timestep>
    <timestep time="35.000">
        <vehicle id="follow" x="454.063000" y="-4.800000" angle="90.000000" type="fast" speed="13.890000" pos="454.063000" lane="e0_0" slope="0.000000" acceleration="0.000000"/>
        <vehicle id="lead" x="272.600000" y="-4.800000" angle="90.000000" type="slow" speed="5.000000" pos="272.600000" lane="e0_0" slope="0.000000" acceleration="0.000000"/>
    </timestep>
    <timestep time="36.000">
        <vehicle id="follow" x="467.953000" y="-4.800000" angle="90.000000" type="fast" speed="13.890000" pos="467.953000" lane="e0_0" slope="0.000000" acceleration="0.000000"/>
        <vehicle id="lead" x="277.600000" y="-4.800000" angle="90.000000" type="slow" speed="5.000000" pos="277.600000" lane="e0_0" slope="0.000000" acceleration="0.000000"/>
    </timestep>
    <timestep time="37.000">
        <vehicle id="follow" x="481.843000" y="-4.800000" angle="90.000000" type="fast" speed="13.890000" pos="481.843000" lane="e0_0" slope="0.000000" acceleration="0.000000"/>
        <vehicle id="lead" x="282.600000" y="-4.800000" angle="90.000000" type="slow" speed="5.000000" pos="282.600000" lane="e0_0" slope="0.000000" acceleration="0.000000"/>
    </timestep>
    <timestep time="38.000">
        <vehicle id="follow" x="495.733000" y="-4.800000" angle="90.000000" type="fast" speed="13.890000" pos="495.733000" lane="e0_0" slope="0.000000" acceleration="0.000000"/>
        <vehicle id="lead" x="287.600000" y="-4.800000" angle="90.000000" type="slow" speed="5.000000" pos="287.600000" lane="e0_0" slope="0.000000" acceleration="0.000000"/>
    </timestep>
    <timestep time="39.000">
        <vehicle id="follow" x="509.623000" y="-4.800000" angle="90.000000" type="fast" speed="13.890000" pos="509.623000" lane="e0_0" slope="0.000000" acceleration="0.000000"/>
        <vehicle id="lead" x="292.600000" y="-4.800000" angle="90.000000" type="slow" speed="5.000000" pos="292.600000" lane="e0_0" slope="0.000000" acceleration="0.000000"/>
    </timestep>
    <timestep time="40.000">
        <vehicle id="follow" x="523.513000" y="-4.800000" angle="90.000000" type="fast" speed="13.890000" pos="523.513000" lane="e0_0" slope="0.000000" acceleration="0.000000"/>
        <vehicle id="lead" x="297.600000" y="-4.800000" angle="90.000000" type="slow" speed="5.000000" pos="297.600000" lane="e0_0" slope="0.000000" acceleration="0.000000"/>
    </timestep>
    <timestep time="41.000">
        <vehicle id="follow" x="537.403000" y="-4.800000" angle="90.000000" type="fast" speed="13.890000" pos="537.403000" lane="e0_0" slope="0.000000" acceleration="0.000000"/>
        <vehicle id="lead" x="302.600000" y="-4.800000" angle="90.000000" type="slow" speed="5.000000" pos="302.600000" lane="e0_0" slope="0.000000" acceleration="0.000000"/>
    </timestep>
    <timestep time="42.000">
        <vehicle id="follow" x="551.293000" y="-4.800000" angle="90.000000" type="fast" speed="13.890000" pos="551.293000" lane="e0_0" slope="0.000000" acceleration="0.000000"/>
        <vehicle id="lead" x="307.600000" y="-4.800000" angle="90.000000" type="slow" speed="5.000000" pos="307.600000" lane="e0_0" slope="0.000000" acceleration="0.000000"/>
    </timestep>
    <timestep time="43.000">
        <vehicle id="follow" x="565.183000" y="-4.800000" angle="90.000000" type="fast" speed="13.890000" pos="565.183000" lane="e0_0" slope="0.000000" acceleration="0.000000"/>
        <vehicle id="lead" x="312.600000" y="-4.800000" angle="90.000000" type="slow" speed="5.000000" pos="312.600000" lane="e0_0" slope="0.000000" acceleration="0.000000"/>
    </timestep>
    <timestep time="44.000">
        <vehicle id="follow" x="579.073000" y="-4.800000" angle="90.000000" type="fast" speed="13.890000" pos="579.073000" lane="e0_0" slope="0.000000" acceleration="0.000000"/>
        <vehicle id="lead" x="317.600000" y="-4.800000" angle="90.000000" type="slow" speed="5.000000" pos="317.600000" lane="e0_0" slope="0.000000" acceleration="0.000000"/>
    </timestep>
    <timestep time="45.000">
        <vehicle id="follow" x="592.963000" y="-4.800000" angle="90.000000" type="fast" speed="13.890000" pos="592.963000" lane="e0_0" slope="0.000000" acceleration="0.000000"/>
        <vehicle id="lead" x="322.600000" y="-4.800000" angle="90.000000" type="slow" speed="5.000000" pos="322.600000" lane="e0_0" slope="0.000000" acceleration="0.000000"/>
    </timestep>
    <timestep time="46.000">
        <vehicle id="follow" x="606.853000" y="-4.800000" angle="90.000000" type="fast" speed="13.890000" pos="606.853000" lane="e0_0" slope="0.000000" acceleration="0.000000"/>
        <vehicle id="lead" x="327.600000" y="-4.800000" angle="90.000000" type="slow" speed="5.000000" pos="327.600000" lane="e0_0" slope="0.000000" acceleration="0.000000"/>
    </timestep>
    <timestep time="47.000">
        <vehicle id="follow" x="620.743000" y="-4.800000" angle="90.000000" type="fast" speed="13.890000" pos="620.743000" lane="e0_0" slope="0.000000" acceleration="0.000000"/>
        <vehicle id="lead" x="332.600000" y="-4.800000" angle="90.000000" type="slow" speed="5.000000" pos="332.600000" lane="e0_0" slope="0.000000" acceleration="0.000000"/>
    </timestep>
    <timestep time="48.000">
        <vehicle id="follow" x="634.633000" y="-4.800000" angle="90.000000" type="fast" speed="13.890000" pos="634.633000" lane="e0_0" slope="0.000000" acceleration="0.000000"/>
        <vehicle id="lead" x="337.600000" y="-4.800000" angle="90.000000" type="slow" speed="5.000000" pos="337.600000" lane="e0_0" slope="0.000000" acceleration="0.000000"/>
    </timestep>
    <timestep time="49.000">
        <vehicle id="follow" x="648.523000" y="-4.800000" angle="90.000000" type="fast" speed="13.890000" pos="648.523000" lane="e0_0" slope="0.000000" acceleration="0.000000"/>
        <vehicle id="lead" x="342.600000" y="-4.800000" angle="90.000000" type="slow" speed="5.000000" pos="342.600000" lane="e0_0" slope="0.000000" acceleration="0.000000"/>
    </timestep>
    <timestep time="50.000">
        <vehicle id="follow" x="662.413000" y="-4.800000" angle="90.000000" type="fast" speed="13.890000" pos="662.413000" lane="e0_0" slope="0.000000" acceleration="0.000000"/>
        <vehicle id="lead" x="347.600000" y="-4.800000" angle="90.000000" type="slow" speed="5.000000" pos="347.600000" lane="e0_0" slope="0.000000" acceleration="0.000000"/>
    </timestep>
    <timestep time="51.000">
        <vehicle id="follow" x="676.303000" y="-4.800000" angle="90.000000" type="fast" speed="13.890000" pos="676.303000" lane="e0_0" slope="0.000000" acceleration="0.000000"/>
        <vehicle id="lead" x="352.600000" y="-4.800000" angle="90.000000" type="slow" speed="5.000000" pos="352.600000" lane="e0_0" slope="0.000000" acceleration="0.000000"/>
    </timestep>
    <timestep time="52.000">
        <vehicle id="follow" x="690.193000" y="-4.800000" angle="90.000000" type="fast" speed="13.890000" pos="690.193000" lane="e0_0" slope="0.000000" acceleration="0.000000"/>
        <vehicle id="lead" x="357.600000" y="-4.800000" angle="90.000000" type="slow" speed="5.000000" pos="357.600000" lane="e0_0" slope="0.000000" acceleration="0.000000"/>
    </timestep>
    <timestep time="53.000">
        <vehicle id="follow" x="704.083000" y="-4.800000" angle="90.000000" type="fast" speed="13.890000" pos="704.083000" lane="e0_0" slope="0.000000" acceleration="0.000000"/>
        <vehicle id="lead" x="362.600000" y="-4.800000" angle="90.000000" type="slow" speed="5.000000" pos="362.600000" lane="e0_0" slope="0.000000" acceleration="0.000000"/>
    </timestep>
    <timestep time="54.000">
        <vehicle id="follow" x="717.973000" y="-4.800000" angle="90.000000" type="fast" speed="13.890000" pos="717.973000" lane="e0_0" slope="0.000000" acceleration="0.000000"/>
        <vehicle id="lead" x="367.600000" y="-4.800000" angle="90.000000" type="slow" speed="5.000000" pos="367.600000" lane="e0_0" slope="0.000000" acceleration="0.000000"/>
    </timestep>
    <timestep time="55.000">
        <vehicle id="follow" x="731.863000" y="-4.800000" angle="90.000000" type="fast" speed="13.890000" pos="731.863000" lane="e0_0" slope="0.000000" acceleration="0.000000"/>
        <vehicle id="lead" x="372.600000" y="-4.800000" angle="90.000000" type="slow" speed="5.000000" pos="372.600000" lane="e0_0" slope="0.000000" acceleration="0.000000"/>
    </timestep>
    <timestep time="56.000">
        <vehicle id="follow" x="745.753000" y="-4.800000" angle="90.000000" type="fast" speed="13.890000" pos="745.753000" lane="e0_0" slope="0.000000" acceleration="0.000000"/>
        <vehicle id="lead" x="377.600000" y="-4.800000" angle="90.000000" type="slow" speed="5.000000" pos="377.600000" lane="e0_0" slope="0.000000" acceleration="0.000000"/>
    </timestep>
    <timestep time="57.000">
        <vehicle id="follow" x="759.643000" y="-4.800000" angle="90.000000" type="fast" speed="13.890000" pos="759.643000" lane="e0_0" slope="0.000000" acceleration="0.000000"/>
        <vehicle id="lead" x="382.600000" y="-4.800000" angle="90.000000" type="slow" speed="5.000000" pos="382.600000" lane="e0_0" slope="0.000000" acceleration="0.000000"/>
    </timestep>
    <timestep time="58.000">
        <vehicle id="follow" x="773.533000" y="-4.800000" angle="90.000000" type="fast" speed="13.890000" pos="773.533000" lane="e0_0" slope="0.000000" acceleration="0.000000"/>
        <vehicle id="lead" x="387.600000" y="-4.800000" angle="90.000000" type="slow" speed="5.000000" pos="387.600000" lane="e0_0" slope="0.000000" acceleration="0.000000"/>
    </timestep>
    <timestep time="59.000">
        <vehicle id="follow" x="787.423000" y="-4.800000" angle="90.000000" type="fast" speed="13.890000" pos="787.423000" lane="e0_0" slope="0.000000" acceleration="0.000000"/>
        <vehicle id="lead" x="392.600000" y="-4.800000" angle="90.000000" type="slow" speed="5.000000" pos="392.600000" lane="e0_0" slope="0.000000" acceleration="0.000000"/>
    </timestep>
    <timestep time="60.000">
        <vehicle id="follow" x="801.313000" y="-4.800000" angle="90.000000" type="fast" speed="13.890000" pos="801.313000" lane="e0_0" slope="0.000000" acceleration="0.000000"/>
        <vehicle id="lead" x="397.600000" y="-4.800000" angle="90.000000" type="slow" speed="5.000000" pos="397.600000" lane="e0_0" slope="0.000000" acceleration="0.000000"/>
    </timestep>
    <timestep time="61.000">
        <vehicle id="follow" x="815.203000" y="-4.800000" angle="90.000000" type="fast" speed="13.890000" pos="815.203000" lane="e0_0" slope="0.000000" acceleration="0.000000"/>
        <vehicle id="lead" x="402.600000" y="-4.800000" angle="90.000000" type="slow" speed="5.000000" pos="402.600000" lane="e0_0" slope="0.000000" acceleration="0.000000"/>
    </timestep>
    <timestep time="62.000">
        <vehicle id="follow" x="829.093000" y="-4.800000" angle="90.000000" type="fast" speed="13.890000" pos="829.093000" lane="e0_0" slope="0.000000" acceleration="0.000000"/>
        <vehicle id="lead" x="407.600000" y="-4.800000" angle="90.000000" type="slow" speed="5.000000" pos="407.600000" lane="e0_0" slope="0.000000" acceleration="0.000000"/>
    </timestep>
    <timestep time="63.000">
        <vehicle id="follow" x="842.983000" y="-4.800000" angle="90.000000" type="fast" speed="13.890000" pos="842.983000" lane="e0_0" slope="0.000000" acceleration="0.000000"/>
        <vehicle id="lead" x="412.600000" y="-4.800000" angle="90.000000" type="slow" speed="5.000000" pos="412.600000" lane="e0_0" slope="0.000000" acceleration="0.000000"/>
    </timestep>
    <timestep time="64.000">
        <vehicle id="follow" x="856.873000" y="-4.800000" angle="90.000000" type="fast" speed="13.890000" pos="856.873000" lane="e0_0" slope="0.000000" acceleration="0.000000"/>
        <vehicle id="lead" x="417.600000" y="-4.800000" angle="90.000000" type="slow" speed="5.000000" pos="417.600000" lane="e0_0" slope="0.000000" acceleration="0.000000"/>
    </timestep>
    <timestep time="65.000">
        <vehicle id="follow" x="870.763000" y="-4.800000" angle="90.000000" type="fast" speed="13.890000" pos="870.763000" lane="e0_0" slope="0.000000" acceleration="0.000000"/>
        <vehicle id="lead" x="422.600000" y="-4.800000" angle="90.000000" type="slow" speed="5.000000" pos="422.600000" lane="e0_0" slope="0.000000" acceleration="0.000000"/>
    </timestep>
    <timestep time="66.000">
        <vehicle id="follow" x="884.653000" y="-4.800000" angle="90.000000" type="fast" speed="13.890000" pos="884.653000" lane="e0_0" slope="0.000000" acceleration="0.000000"/>
        <vehicle id="lead" x="427.600000" y="-4.800000" angle="90.000000" type="slow" speed="5.000000" pos="427.600000" lane="e0_0" slope="0.000000" acceleration="0.000000"/>
    </timestep>
    <timestep time="67.000">
        <vehicle id="follow" x="898.543000" y="-4.800000" angle="90.000000" type="fast" speed="13.890000" pos="898.543000" lane="e0_0" slope="0.000000" acceleration="0.000000"/>
        <vehicle id="lead" x="432.600000" y="-4.800000" angle="90.000000" type="slow" speed="5.000000" pos="432.600000" lane="e0_0" slope="0.000000" acceleration="0.000000"/>
    </timestep>
    <timestep time="68.000">
        <vehicle id="follow" x="912.433000" y="-4.800000" angle="90.000000" type="fast" speed="13.890000" pos="912.433000" lane="e0_0" slope="0.000000" acceleration="0.000000"/>
        <vehicle id="lead" x="437.600000" y="-4.800000" angle="90.000000" type="slow" speed="5.000000" pos="437.600000" lane="e0_0" slope="0.000000" acceleration="0.000000"/>
    </timestep>
    <timestep time="69.000">
        <vehicle id="follow" x="926.323000" y="-4.800000" angle="90.000000" type="fast" speed="13.890000" pos="926.323000" lane="e0_0" slope="0.000000" acceleration="0.000000"/>
        <vehicle id="lead" x="442.600000" y="-4.800000" angle="90.000000" type="slow" speed="5.000000" pos="442.600000" lane="e0_0" slope="0.000000" acceleration="0.000000"/>
    </timestep>
    <timestep time="70.000">
        <vehicle id="follow" x="940.213000" y="-4.800000" angle="90.000000" type="fast" speed="13.890000" pos="940.213000" lane="e0_0" slope="0.000000" acceleration="0.000000"/>
        <vehicle id="lead" x="447.600000" y="-4.800000" angle="90.000000" type="slow" speed="5.000000" pos="447.600000" lane="e0_0" slope="0.000000" acceleration="0.000000"/>
    </timestep>
    <timestep time="71.000">
        <vehicle id="follow" x="954.103000" y="-4.800000" angle="90.000000" type="fast" speed="13.890000" pos="954.103000" lane="e0_0" slope="0.000000" acceleration="0.000000"/>
        <vehicle id="lead" x="452.600000" y="-4.800000" angle="90.000000" type="slow" speed="5.000000" pos="452.600000" lane="e0_0" slope="0.000000" acceleration="0.000000"/>
    </timestep>
    <timestep time="72.000">