<?xml version="1.0" encoding="UTF-8"?>

<!-- generated on 2026-07-08 08:33:21 by Eclipse SUMO sumo Version 1.20.0
<configuration xmlns:xsi="http://www.w3.org/2001/XMLSchema-instance" xsi:noNamespaceSchemaLocation="http://sumo.dlr.de/xsd/sumoConfiguration.xsd">

    <input>
        <net-file value="net.net.xml"/>
        <route-files value="rou.rou.xml"/>
    </input>

    <output>
        <summary-output value="summary.xml"/>
        <tripinfo-output value="tripinfo.xml"/>
    </output>

    <time>
        <begin value="0"/>
        <end value="600"/>
        <step-length value="1"/>
    </time>

    <processing>
        <step-method.ballistic value="false"/>
        <time-to-teleport value="-1"/>
        <default.action-step-length value="1"/>
        <default.speeddev value="0"/>
    </processing>

    <report>
        <no-step-log value="true"/>
    </report>

    <random_number>
        <seed value="42"/>
    </random_number>

</configuration>
-->

<tripinfos xmlns:xsi="http://www.w3.org/2001/XMLSchema-instance" xsi:noNamespaceSchemaLocation="http://sumo.dlr.de/xsd/tripinfo_file.xsd">
    <tripinfo id="6" depart="13.00" departLane="A0A1_0" departPos="5.10" departSpeed="0.00" departDelay="0.56" arrival="45.00" arrivalLane="A1B1_0" arrivalPos="185.60" arrivalSpeed="13.89" duration="32.00" routeLength="379.13" waitingTime="0.00" waitingCount="0" stopTime="0.00" timeLoss="3.75" rerouteNo="0" devices="tripinfo_6" vType="DEFAULT_VEHTYPE" speedFactor="1.00" vaporized=""/>
    <tripinfo id="13" depart="30.00" departLane="A1A0_0" departPos="5.10" departSpeed="0.00" departDelay="3.04" arrival="46.00" arrivalLane="A1A0_0" arrivalPos="189.60" arrivalSpeed="13.89" duration="16.00" routeLength="184.50" waitingTime="0.00" waitingCount="0" stopTime="0.00" timeLoss="2.19" rerouteNo="0" devices="tripinfo_13" vType="DEFAULT_VEHTYPE" speedFactor="1.00" vaporized=""/>
    <tripinfo id="7" depart="15.00" departLane="B2B1_0" departPos="5.10" departSpeed="0.00" departDelay="0.48" arrival="47.00" arrivalLane="B1C1_0" arrivalPos="185.60" arrivalSpeed="13.89" duration="32.00" routeLength="380.30" waitingTime="0.00" waitingCount="0" stopTime="0.00" timeLoss="3.24" rerouteNo="0" devices="tripinfo_7" vType="DEFAULT_VEHTYPE" speedFactor="1.00" vaporized=""/>
    <tripinfo id="1" depart="3.00" departLane="A2B2_0" departPos="5.10" departSpeed="0.00" departDelay="0.93" arrival="52.00" arrivalLane="A2A1_0" arrivalPos="189.60" arrivalSpeed="13.89" duration="49.00" routeLength="576.11" waitingTime="0.00" waitingCount="0" stopTime="0.00" timeLoss="6.12" rerouteNo="0" devices="tripinfo_1" vType="DEFAULT_VEHTYPE" speedFactor="1.00" vaporized=""/>
    <tripinfo id="0" depart="0.00" departLane="B2B1_0" departPos="5.10" departSpeed="0.00" departDelay="0.00" arrival="63.00" arrivalLane="A0A1_0" arrivalPos="189.60" arrivalSpeed="13.89" duration="63.00" routeLength="771.31" waitingTime="0.00" waitingCount="0" stopTime="0.00" timeLoss="5.57" rerouteNo="0" devices="tripinfo_0" vType="DEFAULT_VEHTYPE" speedFactor="1.00" vaporized=""/>
    <tripinfo id="5" depart="11.00" departLane="A2A1_0" departPos="5.10" departSpeed="0.00" departDelay="0.63" arrival="64.00" arrivalLane="B1B2_0" arrivalPos="185.60" arrivalSpeed="13.89" duration="53.00" routeLength="584.09" waitingTime="2.00" waitingCount="1" stopTime="0.00" timeLoss="8.19" rerouteNo="0" devices="tripinfo_5" vType="DEFAULT_VEHTYPE" speedFactor="1.00" vaporized=""/>
    <tripinfo id="2" depart="5.00" departLane="C0B0_0" departPos="5.10" departSpeed="0.00" departDelay="0.85" arrival="71.00" arrivalLane="B2C2_0" arrivalPos="189.60" arrivalSpeed="8.05" duration="66.00" routeLength="777.76" waitingTime="0.00" waitingCount="0" stopTime="0.00" timeLoss="8.69" rerouteNo="0" devices="tripinfo_2" vType="DEFAULT_VEHTYPE" speedFactor="1.00" vaporized=""/>
    <tripinfo id="10" depart="21.00" departLane="C1B1_0" departPos="5.10" departSpeed="0.00" departDelay="0.26" arrival="73.00" arrivalLane="B2C2_0" arrivalPos="189.60" arrivalSpeed="13.89" duration="52.00" routeLength="573.76" waitingTime="0.00" waitingCount="0" stopTime="0.00" timeLoss="8.87" rerouteNo="0" devices="tripinfo_10" vType="DEFAULT_VEHTYPE" speedFactor="1.00" vaporized=""/>
    <tripinfo id="11" depart="24.00" departLane="B0B1_0" departPos="5.10" departSpeed="0.00" departDelay="1.19" arrival="73.00" arrivalLane="A1A2_0" arrivalPos="189.60" arrivalSpeed="13.89" duration="49.00" routeLength="578.93" waitingTime="0.00" waitingCount="0" stopTime="0.00" timeLoss="5.01" rerouteNo="0" devices="tripinfo_11" vType="DEFAULT_VEHTYPE" speedFactor="1.00" vaporized=""/>
    <tripinfo id="9" depart="19.00" departLane="C1B1_0" departPos="5.10" departSpeed="0.00" departDelay="0.34" arrival="84.00" arrivalLane="A0A1_0" arrivalPos="189.60" arrivalSpeed="13.89" duration="65.00" routeLength="771.10" waitingTime="0.00" waitingCount="0" stopTime="0.00" timeLoss="7.16" rerouteNo="0" devices="tripinfo_9" vType="DEFAULT_VEHTYPE" speedFactor="1.00" vaporized=""/>
    <tripinfo id="16" depart="35.00" departLane="B1B2_0" departPos="5.10" departSpeed="0.00" departDelay="1.82" arrival="84.00" arrivalLane="C2C1_0" arrivalPos="189.60" arrivalSpeed="13.89" duration="49.00" routeLength="571.31" waitingTime="0.00" waitingCount="0" stopTime="0.00" timeLoss="6.93" rerouteNo="0" devices="tripinfo_16" vType="DEFAULT_VEHTYPE" speedFactor="1.00" vaporized=""/>
    <tripinfo id="3" depart="7.00" departLane="C1C2_0" departPos="5.10" departSpeed="0.00" departDelay="0.78" arrival="85.00" arrivalLane="A1A0_0" arrivalPos="189.60" arrivalSpeed="13.89" duration="78.00" routeLength="987.18" waitingTime="0.00" waitingCount="0" stopTime="0.00" timeLoss="5.39" rerouteNo="0" devices="tripinfo_3" vType="DEFAULT_VEHTYPE" speedFactor="1.00" vaporized=""/>
    <tripinfo id="18" depart="38.00" departLane="C1B1_0" departPos="5.10" departSpeed="0.00" departDelay="0.68" arrival="87.00" arrivalLane="B2A2_0" arrivalPos="189.60" arrivalSpeed="13.89" duration="49.00" routeLength="578.92" waitingTime="0.00" waitingCount="0" stopTime="0.00" timeLoss="5.40" rerouteNo="0" devices="tripinfo_18" vType="DEFAULT_VEHTYPE" speedFactor="1.00" vaporized=""/>
    <tripinfo id="12" depart="26.00" departLane="C2B2_0" departPos="5.10" departSpeed="0.00" departDelay="1.12" arrival="91.00" arrivalLane="B0B1_0" arrivalPos="185.60" arrivalSpeed="13.89" duration="65.00" routeLength="774.57" waitingTime="1.00" waitingCount="1" stopTime="0.00" timeLoss="7.21" rerouteNo="0" devices="tripinfo_12" vType="DEFAULT_VEHTYPE" speedFactor="1.00" vaporized=""/>
    <tripinfo id="21" depart="44.00" departLane="A2A1_0" departPos="5.10" departSpeed="0.00" departDelay="0.45" arrival="94.00" arrivalLane="A2B2_0" arrivalPos="189.60" arrivalSpeed="13.89" duration="50.00" routeLength="570.95" waitingTime="0.00" waitingCount="0" stopTime="0.00" timeLoss="6.87" rerouteNo="0" devices="tripinfo_21" vType="DEFAULT_VEHTYPE" speedFactor="1.00" vaporized=""/>
    <tripinfo id="15" depart="32.00" departLane="C1B1_0" departPos="5.10" departSpeed="0.00" departDelay="0.90" arrival="98.00" arrivalLane="C0B0_0" arrivalPos="189.60" arrivalSpeed="13.89" duration="66.00" routeLength="761.58" waitingTime="0.00" waitingCount="0" stopTime="0.00" timeLoss="9.49" rerouteNo="0" devices="tripinfo_15" vType="DEFAULT_VEHTYPE" speedFactor="1.00" vaporized=""/>
    <tripinfo id="4" depart="9.00" departLane="B1A1_0" departPos="5.10" departSpeed="0.00" departDelay="0.71" arrival="99.00" arrivalLane="A0A1_0" arrivalPos="189.60" arrivalSpeed="13.89" duration="90.00" routeLength="956.21" waitingTime="7.00" waitingCount="1" stopTime="0.00" timeLoss="19.16" rerouteNo="0" devices="tripinfo_4" vType="DEFAULT_VEHTYPE" speedFactor="1.00" vaporized=""/>
    <tripinfo id="24" depart="52.00" departLane="B2B1_0" departPos="5.10" departSpeed="0.00" departDelay="2.23" arrival="100.00" arrivalLane="B0B1_0" arrivalPos="185.60" arrivalSpeed="13.89" duration="48.00" routeLength="570.77" waitingTime="0.00" waitingCount="0" stopTime="0.00" timeLoss="4.64" rerouteNo="0" devices="tripinfo_24" vType="DEFAULT_VEHTYPE" speedFactor="1.00" vaporized=""/>
    <tripinfo id="8" depart="17.00" departLane="A2A1_0" departPos="5.10" departSpeed="0.00" departDelay="0.41" arrival="104.00" arrivalLane="B2A2_0" arrivalPos="189.60" arrivalSpeed="11.71" duration="87.00" routeLength="765.22" waitingTime="18.00" waitingCount="1" stopTime="0.00" timeLoss="29.43" rerouteNo="0" devices="tripinfo_8" vType="DEFAULT_VEHTYPE" speedFactor="1.00" vaporized=""/>
    <tripinfo id="19" depart="40.00" departLane="C1C0_0" departPos="5.10" departSpeed="0.00" departDelay="0.60" arrival="104.00" arrivalLane="B1C1_0" arrivalPos="185.60" arrivalSpeed="13.89" duration="64.00" routeLength="765.94" waitingTime="0.00" waitingCount="0" stopTime="0.00" timeLoss="5.94" rerouteNo="0" devices="tripinfo_19" vType="DEFAULT_VEHTYPE" speedFactor="1.00" vaporized=""/>
    <tripinfo id="27" depart="57.00" departLane="B2B1_0" departPos="5.10" departSpeed="0.00" departDelay="1.01" arrival="109.00" arrivalLane="B2A2_0" arrivalPos="189.60" arrivalSpeed="13.89" duration="52.00" routeLength="574.56" waitingTime="1.00" waitingCount="1" stopTime="0.00" timeLoss="9.11" rerouteNo="0" devices="tripinfo_27" vType="DEFAULT_VEHTYPE" speedFactor="1.00" vaporized=""/>
    <tripinfo id="14" depart="30.00" departLane="C1C0_0" departPos="5.10" departSpeed="0.00" departDelay="0.97" arrival="111.00" arrivalLane="B2A2_0" arrivalPos="189.60" arrivalSpeed="13.89" duration="81.00" routeLength="975.10" waitingTime="0.00" waitingCount="0" stopTime="0.00" timeLoss="8.57" rerouteNo="0" devices="tripinfo_14" vType="DEFAULT_VEHTYPE" speedFactor="1.00" vaporized=""/>
    <tripinfo id="25" depart="52.00" departLane="B0B1_0" departPos="5.10" departSpeed="0.00" departDelay="0.16" arrival="115.00" arrivalLane="A2A1_0" arrivalPos="189.60" arrivalSpeed="13.89" duration="63.00" routeLength="781.63" waitingTime="0.00" waitingCount="0" stopTime="0.00" timeLoss="5.21" rerouteNo="0" devices="tripinfo_25" vType="DEFAULT_VEHTYPE" speedFactor="1.00" vaporized=""/>
    <tripinfo id="17" depart="36.00" departLane="B0C0_0" departPos="5.10" departSpeed="0.00" departDelay="0.75" arrival="124.00" arrivalLane="B1C1_0" arrivalPos="185.60" arrivalSpeed="13.89" duration="88.00" routeLength="771.91" waitingTime="21.00" waitingCount="1" stopTime="0.00" timeLoss="30.05" rerouteNo="0" devices="tripinfo_17" vType="DEFAULT_VEHTYPE" speedFactor="1.00" vaporized=""/>
    <tripinfo id="37" depart="77.00" departLane="B2B1_0" departPos="5.10" departSpeed="0.00" departDelay="0.28" arrival="124.00" arrivalLane="B0C0_0" arrivalPos="189.60" arrivalSpeed="13.89" duration="47.00" routeLength="584.29" waitingTime="0.00" waitingCount="0" stopTime="0.00" timeLoss="3.53" rerouteNo="0" devices="tripinfo_37" vType="DEFAULT_VEHTYPE" speedFactor="1.00" vaporized=""/>
    <tripinfo id="44" depart="92.00" departLane="A1A0_0" departPos="5.10" departSpeed="0.00" departDelay="0.76" arrival="124.00" arrivalLane="A0B0_0" arrivalPos="189.60" arrivalSpeed="13.89" duration="32.00" routeLength="381.84" waitingTime="0.00" waitingCount="0" stopTime="0.00" timeLoss="3.84" rerouteNo="0" devices="tripinfo_44" vType="DEFAULT_VEHTYPE" speedFactor="1.00" vaporized=""/>
    <tripinfo id="22" depart="46.00" departLane="A0B0_0" departPos="5.10" departSpeed="0.00" departDelay="0.38" arrival="130.00" arrivalLane="A2A1_0" arrivalPos="189.60" arrivalSpeed="13.89" duration="84.00" routeLength="985.43" waitingTime="0.00" waitingCount="0" stopTime="0.00" timeLoss="10.09" rerouteNo="0" devices="tripinfo_22" vType="DEFAULT_VEHTYPE" speedFactor="1.00" vaporized=""/>
    <tripinfo id="39" depart="84.00" departLane="A2B2_0" departPos="5.10" departSpeed="0.00" departDelay="3.13" arrival="133.00" arrivalLane="A2A1_0" arrivalPos="189.60" arrivalSpeed="13.89" duration="49.00" routeLength="576.11" waitingTime="0.00" waitingCount="0" stopTime="0.00" timeLoss="6.12" rerouteNo="0" devices="tripinfo_39" vType="DEFAULT_VEHTYPE" speedFactor="1.00" vaporized=""/>
    <tripinfo id="49" depart="102.00" departLane="C2C1_0" departPos="5.10" departSpeed="0.00" departDelay="0.39" arrival="134.00" arrivalLane="C1C0_0" arrivalPos="189.60" arrivalSpeed="13.89" duration="32.00" routeLength="388.50" waitingTime="0.00" waitingCount="0" stopTime="0.00" timeLoss="3.21" rerouteNo="0" devices="tripinfo_49" vType="DEFAULT_VEHTYPE" speedFactor="1.00" vaporized=""/>
    <tripinfo id="32" depart="69.00" departLane="C1C0_0" departPos="5.10" departSpeed="0.00" departDelay="2.65" arrival="135.00" arrivalLane="C0C1_0" arrivalPos="189.60" arrivalSpeed="13.89" duration="66.00" routeLength="768.29" waitingTime="0.00" waitingCount="0" stopTime="0.00" timeLoss="8.56" rerouteNo="0" devices="tripinfo_32" vType="DEFAULT_VEHTYPE" speedFactor="1.00" vaporized=""/>
    <tripinfo id="47" depart="103.00" departLane="A0B0_0" departPos="5.10" departSpeed="0.00" departDelay="5.54" arrival="135.00" arrivalLane="B0C0_0" arrivalPos="189.60" arrivalSpeed="13.89" duration="32.00" routeLength="388.50" waitingTime="0.00" waitingCount="0" stopTime="0.00" timeLoss="3.66" rerouteNo="0" devices="tripinfo_47" vType="DEFAULT_VEHTYPE" speedFactor="1.00" vaporized=""/>
    <tripinfo id="34" depart="73.00" departLane="B0A0_0" departPos="5.10" departSpeed="0.00" departDelay="2.50" arrival="136.00" arrivalLane="A2B2_0" arrivalPos="189.60" arrivalSpeed="13.89" duration="63.00" routeLength="772.86" waitingTime="0.00" waitingCount="0" stopTime="0.00" timeLoss="6.95" rerouteNo="0" devices="tripinfo_34" vType="DEFAULT_VEHTYPE" speedFactor="1.00" vaporized=""/>
    <tripinfo id="52" depart="108.00" departLane="A2B2_0" departPos="5.10" departSpeed="0.00" departDelay="0.17" arrival="140.00" arrivalLane="B2B1_0" arrivalPos="185.60" arrivalSpeed="13.89" duration="32.00" routeLength="379.13" waitingTime="0.00" waitingCount="0" stopTime="0.00" timeLoss="3.75" rerouteNo="0" devices="tripinfo_52" vType="DEFAULT_VEHTYPE" speedFactor="1.00" vaporized=""/>
    <tripinfo id="38" depart="80.00" departLane="C1C2_0" departPos="5.10" departSpeed="0.00" departDelay="1.20" arrival="143.00" arrivalLane="B1B0_0" arrivalPos="185.60" arrivalSpeed="13.89" duration="63.00" routeLength="781.64" waitingTime="0.00" waitingCount="0" stopTime="0.00" timeLoss="5.15" rerouteNo="0" devices="tripinfo_38" vType="DEFAULT_VEHTYPE" speedFactor="1.00" vaporized=""/>
    <tripinfo id="23" depart="48.00" departLane="A1A0_0" departPos="5.10" departSpeed="0.00" departDelay="0.31" arrival="145.00" arrivalLane="A2B2_0" arrivalPos="189.60" arrivalSpeed="13.89" duration="97.00" routeLength="1164.47" waitingTime="0.00" waitingCount="0" stopTime="0.00" timeLoss="10.22" rerouteNo="0" devices="tripinfo_23" vType="DEFAULT_VEHTYPE" speedFactor="1.00" vaporized=""/>
    <tripinfo id="28" depart="60.00" departLane="A1B1_0" departPos="5.10" departSpeed="0.00" departDelay="1.94" arrival="145.00" arrivalLane="C0B0_0" arrivalPos="189.60" arrivalSpeed="13.89" duration="85.00" routeLength="771.31" waitingTime="17.00" waitingCount="1" stopTime="0.00" timeLoss="28.53" rerouteNo="0" devices="tripinfo_28" vType="DEFAULT_VEHTYPE" speedFactor="1.00" vaporized=""/>
    <tripinfo id="46" depart="96.00" departLane="C1B1_0" departPos="5.10" departSpeed="0.00" departDelay="0.62" arrival="146.00" arrivalLane="B1A1_0" arrivalPos="185.60" arrivalSpeed="13.89" duration="50.00" routeLength="380.50" waitingTime="8.00" waitingCount="2" stopTime="0.00" timeLoss="22.21" rerouteNo="0" devices="tripinfo_46" vType="DEFAULT_VEHTYPE" speedFactor="1.00" vaporized=""/>
    <tripinfo id="29" depart="64.00" departLane="A1A2_0" departPos="5.10" departSpeed="0.00" departDelay="3.87" arrival="147.00" arrivalLane="B0C0_0" arrivalPos="189.60" arrivalSpeed="13.89" duration="83.00" routeLength="975.10" waitingTime="1.00" waitingCount="1" stopTime="0.00" timeLoss="10.40" rerouteNo="0" devices="tripinfo_29" vType="DEFAULT_VEHTYPE" speedFactor="1.00" vaporized=""/>
    <tripinfo id="43" depart="90.00" departLane="C2C1_0" departPos="5.10" departSpeed="0.00" departDelay="0.84" arrival="148.00" arrivalLane="B1B2_0" arrivalPos="185.60" arrivalSpeed="13.89" duration="58.00" routeLength="573.76" waitingTime="5.00" waitingCount="1" stopTime="0.00" timeLoss="15.23" rerouteNo="0" devices="tripinfo_43" vType="DEFAULT_VEHTYPE" speedFactor="1.00" vaporized=""/>
    <tripinfo id="33" depart="69.00" departLane="A2A1_0" departPos="5.10" departSpeed="0.00" departDelay="0.57" arrival="150.00" arrivalLane="A0A1_0" arrivalPos="189.60" arrivalSpeed="13.25" duration="81.00" routeLength="972.29" waitingTime="0.00" waitingCount="0" stopTime="0.00" timeLoss="9.08" rerouteNo="0" devices="tripinfo_33" vType="DEFAULT_VEHTYPE" speedFactor="1.00" vaporized=""/>
    <tripinfo id="48" depart="100.00" departLane="C2C1_0" departPos="5.10" departSpeed="0.00" departDelay="0.47" arrival="152.00" arrivalLane="B1B2_0" arrivalPos="185.60" arrivalSpeed="13.89" duration="52.00" routeLength="573.76" waitingTime="1.00" waitingCount="1" stopTime="0.00" timeLoss="9.38" rerouteNo="0" devices="tripinfo_48" vType="DEFAULT_VEHTYPE" speedFactor="1.00" vaporized=""/>
    <tripinfo id="30" depart="63.00" departLane="C2C1_0" departPos="5.10" departSpeed="0.00" departDelay="0.79" arrival="153.00" arrivalLane="B2B1_0" arrivalPos="185.60" arrivalSpeed="13.89" duration="90.00" routeLength="764.03" waitingTime="17.00" waitingCount="2" stopTime="0.00" timeLoss="32.44" rerouteNo="0" devices="tripinfo_30" vType="DEFAULT_VEHTYPE" speedFactor="1.00" vaporized=""/>
    <tripinfo id="35" depart="73.00" departLane="A2A1_0" departPos="5.10" departSpeed="0.00" departDelay="0.42" arrival="154.00" arrivalLane="C2B2_0" arrivalPos="189.60" arrivalSpeed="13.89" duration="81.00" routeLength="985.43" waitingTime="0.00" waitingCount="0" stopTime="0.00" timeLoss="7.50" rerouteNo="0" devices="tripinfo_35" vType="DEFAULT_VEHTYPE" speedFactor="1.00" vaporized=""/>
    <tripinfo id="31" depart="65.00" departLane="B1C1_0" departPos="5.10" departSpeed="0.00" departDelay="0.72" arrival="155.00" arrivalLane="B2C2_0" arrivalPos="189.60" arrivalSpeed="13.89" duration="90.00" routeLength="764.03" waitingTime="16.00" waitingCount="2" stopTime="0.00" timeLoss="33.10" rerouteNo="0" devices="tripinfo_31" vType="DEFAULT_VEHTYPE" speedFactor="1.00" vaporized=""/>
    <tripinfo id="36" depart="75.00" departLane="C1C2_0" departPos="5.10" departSpeed="0.00" departDelay="0.35" arrival="155.00" arrivalLane="B0A0_0" arrivalPos="189.60" arrivalSpeed="13.89" duration="80.00" routeLength="980.27" waitingTime="0.00" waitingCount="0" stopTime="0.00" timeLoss="6.79" rerouteNo="0" devices="tripinfo_36" vType="DEFAULT_VEHTYPE" speedFactor="1.00" vaporized=""/>
    <tripinfo id="26" depart="54.00" departLane="A2B2_0" departPos="5.10" departSpeed="0.00" departDelay="0.09" arrival="157.00" arrivalLane="C2B2_0" arrivalPos="189.60" arrivalSpeed="13.89" duration="103.00" routeLength="972.29" waitingTime="17.00" waitingCount="2" stopTime="0.00" timeLoss="29.95" rerouteNo="0" devices="tripinfo_26" vType="DEFAULT_VEHTYPE" speedFactor="1.00" vaporized=""/>
    <tripinfo id="20" depart="42.00" departLane="B2C2_0" departPos="5.10" departSpeed="0.00" departDelay="0.53" arrival="165.00" arrivalLane="A0B0_0" arrivalPos="189.60" arrivalSpeed="13.89" duration="123.00" routeLength="1172.44" waitingTime="20.00" waitingCount="2" stopTime="0.00" timeLoss="35.38" rerouteNo="0" devices="tripinfo_20" vType="DEFAULT_VEHTYPE" speedFactor="1.00" vaporized=""/>
    <tripinfo id="41" depart="86.00" departLane="B2A2_0" departPos="5.10" departSpeed="0.00" departDelay="0.98" arrival="171.00" arrivalLane="C1C2_0" arrivalPos="189.60" arrivalSpeed="13.89" duration="85.00" routeLength="985.43" waitingTime="1.00" waitingCount="1" stopTime="0.00" timeLoss="11.35" rerouteNo="0" devices="tripinfo_41" vType="DEFAULT_VEHTYPE" speedFactor="1.00" vaporized=""/>
    <tripinfo id="51" depart="108.00" departLane="B2C2_0" departPos="5.10" departSpeed="0.00" departDelay="2.25" arrival="172.00" arrivalLane="B1B2_0" arrivalPos="185.60" arrivalSpeed="13.89" duration="64.00" routeLength="765.94" waitingTime="0.00" waitingCount="0" stopTime="0.00" timeLoss="6.86" rerouteNo="0" devices="tripinfo_51" vType="DEFAULT_VEHTYPE" speedFactor="1.00" vaporized=""/>
    <tripinfo id="53" depart="110.00" departLane="A1A0_0" departPos="5.10" departSpeed="0.00" departDelay="0.10" arrival="175.00" arrivalLane="B1A1_0" arrivalPos="185.60" arrivalSpeed="13.89" duration="65.00" routeLength="781.44" waitingTime="0.00" waitingCount="0" stopTime="0.00" timeLoss="6.09" rerouteNo="0" devices="tripinfo_53" vType="DEFAULT_VEHTYPE" speedFactor="1.00" vaporized=""/>
    <tripinfo id="59" depart="125.00" departLane="B2A2_0" departPos="5.10" departSpeed="0.00" departDelay="2.66" arrival="175.00" arrivalLane="A1A2_0" arrivalPos="189.60" arrivalSpeed="13.89" duration="50.00" routeLength="576.11" waitingTime="0.00" waitingCount="0" stopTime="0.00" timeLoss="6.77" rerouteNo="0" devices="tripinfo_59" vType="DEFAULT_VEHTYPE" speedFactor="1.00" vaporized=""/>
    <tripinfo id="60" depart="125.00" departLane="C0C1_0" departPos="5.10" departSpeed="0.00" departDelay="0.58" arrival="175.00" arrivalLane="B1B2_0" arrivalPos="185.60" arrivalSpeed="13.89" duration="50.00" routeLength="578.93" waitingTime="0.00" waitingCount="0" stopTime="0.00" timeLoss="5.65" rerouteNo="0" devices="tripinfo_60" vType="DEFAULT_VEHTYPE" speedFactor="1.00" vaporized=""/>
    <tripinfo id="66" depart="137.00" departLane="C1C2_0" departPos="5.10" departSpeed="0.00" departDelay="0.14" arrival="175.00" arrivalLane="C2B2_0" arrivalPos="189.60" arrivalSpeed="5.20" duration="38.00" routeLength="381.84" waitingTime="3.00" waitingCount="1" stopTime="0.00" timeLoss="9.83" rerouteNo="0" devices="tripinfo_66" vType="DEFAULT_VEHTYPE" speedFactor="1.00" vaporized=""/>
    <tripinfo id="45" depart="94.00" departLane="A1A0_0" departPos="5.10" departSpeed="0.00" departDelay="0.69" arrival="176.00" arrivalLane="B2B1_0" arrivalPos="185.60" arrivalSpeed="13.89" duration="82.00" routeLength="971.91" waitingTime="0.00" waitingCount="0" stopTime="0.00" timeLoss="7.96" rerouteNo="0" devices="tripinfo_45" vType="DEFAULT_VEHTYPE" speedFactor="1.00" vaporized=""/>
    <tripinfo id="61" depart="127.00" departLane="C0C1_0" departPos="5.10" departSpeed="0.00" departDelay="0.51" arrival="177.00" arrivalLane="B1B2_0" arrivalPos="185.60" arrivalSpeed="13.89" duration="50.00" routeLength="578.93" waitingTime="0.00" waitingCount="0" stopTime="0.00" timeLoss="6.62" rerouteNo="0" devices="tripinfo_61" vType="DEFAULT_VEHTYPE" speedFactor="1.00" vaporized=""/>
    <tripinfo id="42" depart="88.00" departLane="B0C0_0" departPos="5.10" departSpeed="0.00" departDelay="0.91" arrival="182.00" arrivalLane="A2A1_0" arrivalPos="189.60" arrivalSpeed="13.89" duration="94.00" routeLength="1184.52" waitingTime="0.00" waitingCount="0" stopTime="0.00" timeLoss="6.93" rerouteNo="0" devices="tripinfo_42" vType="DEFAULT_VEHTYPE" speedFactor="1.00" vaporized=""/>
    <tripinfo id="40" depart="93.00" departLane="B1C1_0" departPos="5.10" departSpeed="0.00" departDelay="10.06" arrival="183.00" arrivalLane="A2B2_0" arrivalPos="189.60" arrivalSpeed="13.89" duration="90.00" routeLength="961.58" waitingTime="5.00" waitingCount="1" stopTime="0.00" timeLoss="19.09" rerouteNo="0" devices="tripinfo_40" vType="DEFAULT_VEHTYPE" speedFactor="1.00" vaporized=""/>
    <tripinfo id="56" depart="117.00" departLane="B1B2_0" departPos="5.10" departSpeed="0.00" departDelay="0.88" arrival="184.00" arrivalLane="A1B1_0" arrivalPos="185.60" arrivalSpeed="13.89" duration="67.00" routeLength="755.67" waitingTime="0.00" waitingCount="0" stopTime="0.00" timeLoss="9.06" rerouteNo="0" devices="tripinfo_56" vType="DEFAULT_VEHTYPE" speedFactor="1.00" vaporized=""/>
    <tripinfo id="50" depart="104.00" departLane="A0A1_0" departPos="5.10" departSpeed="0.00" departDelay="0.32" arrival="185.00" arrivalLane="C0B0_0" arrivalPos="189.60" arrivalSpeed="13.89" duration="81.00" routeLength="969.94" waitingTime="0.00" waitingCount="0" stopTime="0.00" timeLoss="9.70" rerouteNo="0" devices="tripinfo_50" vType="DEFAULT_VEHTYPE" speedFactor="1.00" vaporized=""/>
    <tripinfo id="79" depart="169.00" departLane="A2A1_0" departPos="5.10" departSpeed="0.00" departDelay="5.19" arrival="185.00" arrivalLane="A2A1_0" arrivalPos="189.60" arrivalSpeed="13.89" duration="16.00" routeLength="184.50" waitingTime="0.00" waitingCount="0" stopTime="0.00" timeLoss="2.19" rerouteNo="0" devices="tripinfo_79" vType="DEFAULT_VEHTYPE" speedFactor="1.00" vaporized=""/>
    <tripinfo id="68" depart="141.00" departLane="A0B0_0" departPos="5.10" departSpeed="0.00" departDelay="0.00" arrival="188.00" arrivalLane="C0C1_0" arrivalPos="189.60" arrivalSpeed="13.89" duration="47.00" routeLength="585.84" waitingTime="0.00" waitingCount="0" stopTime="0.00" timeLoss="3.56" rerouteNo="0" devices="tripinfo_68" vType="DEFAULT_VEHTYPE" speedFactor="1.00" vaporized=""/>
    <tripinfo id="62" depart="129.00" departLane="A0A1_0" departPos="5.10" departSpeed="0.00" departDelay="0.44" arrival="194.00" arrivalLane="B0A0_0" arrivalPos="189.60" arrivalSpeed="13.89" duration="65.00" routeLength="772.39" waitingTime="0.00" waitingCount="0" stopTime="0.00" timeLoss="6.94" rerouteNo="0" devices="tripinfo_62" vType="DEFAULT_VEHTYPE" speedFactor="1.00" vaporized=""/>
    <tripinfo id="54" depart="113.00" departLane="B1A1_0" departPos="5.10" departSpeed="0.00" departDelay="1.03" arrival="195.00" arrivalLane="C2B2_0" arrivalPos="189.60" arrivalSpeed="13.89" duration="82.00" routeLength="971.90" waitingTime="0.00" waitingCount="0" stopTime="0.00" timeLoss="9.34" rerouteNo="0" devices="tripinfo_54" vType="DEFAULT_VEHTYPE" speedFactor="1.00" vaporized=""/>
    <tripinfo id="70" depart="146.00" departLane="B1B0_0" departPos="5.10" departSpeed="0.00" departDelay="0.85" arrival="195.00" arrivalLane="B1C1_0" arrivalPos="185.60" arrivalSpeed="13.89" duration="49.00" routeLength="565.40" waitingTime="0.00" waitingCount="0" stopTime="0.00" timeLoss="6.60" rerouteNo="0" devices="tripinfo_70" vType="DEFAULT_VEHTYPE" speedFactor="1.00" vaporized=""/>
    <tripinfo id="65" depart="135.00" departLane="B0A0_0" departPos="5.10" departSpeed="0.00" departDelay="0.22" arrival="200.00" arrivalLane="A0B0_0" arrivalPos="189.60" arrivalSpeed="13.89" duration="65.00" routeLength="768.29" waitingTime="0.00" waitingCount="0" stopTime="0.00" timeLoss="8.28" rerouteNo="0" devices="tripinfo_65" vType="DEFAULT_VEHTYPE" speedFactor="1.00" vaporized=""/>
    <tripinfo id="58" depart="121.00" departLane="B0A0_0" departPos="5.10" departSpeed="0.00" departDelay="0.73" arrival="202.00" arrivalLane="B2B1_0" arrivalPos="185.60" arrivalSpeed="13.89" duration="81.00" routeLength="967.49" waitingTime="0.00" waitingCount="0" stopTime="0.00" timeLoss="8.95" rerouteNo="0" devices="tripinfo_58" vType="DEFAULT_VEHTYPE" speedFactor="1.00" vaporized=""/>
    <tripinfo id="74" depart="154.00" departLane="A1B1_0" departPos="5.10" departSpeed="0.00" departDelay="0.55" arrival="203.00" arrivalLane="B0A0_0" arrivalPos="189.60" arrivalSpeed="13.89" duration="49.00" routeLength="573.76" waitingTime="0.00" waitingCount="0" stopTime="0.00" timeLoss="5.73" rerouteNo="0" devices="tripinfo_74" vType="DEFAULT_VEHTYPE" speedFactor="1.00" vaporized=""/>
    <tripinfo id="67" depart="139.00" departLane="A1A0_0" departPos="5.10" departSpeed="0.00" departDelay="0.07" arrival="205.00" arrivalLane="B1B0_0" arrivalPos="185.60" arrivalSpeed="13.89" duration="66.00" routeLength="771.91" waitingTime="0.00" waitingCount="0" stopTime="0.00" timeLoss="7.72" rerouteNo="0" devices="tripinfo_67" vType="DEFAULT_VEHTYPE" speedFactor="1.00" vaporized=""/>
    <tripinfo id="69" depart="144.00" departLane="C0C1_0" departPos="5.10" departSpeed="0.00" departDelay="0.92" arrival="208.00" arrivalLane="A1A2_0" arrivalPos="189.60" arrivalSpeed="13.89" duration="64.00" routeLength="782.93" waitingTime="0.00" waitingCount="0" stopTime="0.00" timeLoss="6.14" rerouteNo="0" devices="tripinfo_69" vType="DEFAULT_VEHTYPE" speedFactor="1.00" vaporized=""/>
    <tripinfo id="71" depart="148.00" departLane="A2B2_0" departPos="5.10" departSpeed="0.00" departDelay="0.78" arrival="210.00" arrivalLane="C1C0_0" arrivalPos="189.60" arrivalSpeed="13.89" duration="62.00" routeLength="784.68" waitingTime="0.00" waitingCount="0" stopTime="0.00" timeLoss="3.71" rerouteNo="0" devices="tripinfo_71" vType="DEFAULT_VEHTYPE" speedFactor="1.00" vaporized=""/>
    <tripinfo id="57" depart="130.00" departLane="C1C2_0" departPos="5.10" departSpeed="0.00" departDelay="11.81" arrival="213.00" arrivalLane="C1C0_0" arrivalPos="189.60" arrivalSpeed="13.89" duration="83.00" routeLength="972.29" waitingTime="0.00" waitingCount="0" stopTime="0.00" timeLoss="10.88" rerouteNo="0" devices="tripinfo_57" vType="DEFAULT_VEHTYPE" speedFactor="1.00" vaporized=""/>
    <tripinfo id="63" depart="131.00" departLane="A0A1_0" departPos="5.10" departSpeed="0.00" departDelay="0.36" arrival="213.00" arrivalLane="C2B2_0" arrivalPos="189.60" arrivalSpeed="13.89" duration="82.00" routeLength="980.26" waitingTime="0.00" waitingCount="0" stopTime="0.00" timeLoss="8.43" rerouteNo="0" devices="tripinfo_63" vType="DEFAULT_VEHTYPE" speedFactor="1.00" vaporized=""/>
    <tripinfo id="78" depart="166.00" departLane="B0B1_0" departPos="5.10" departSpeed="0.00" departDelay="4.26" arrival="217.00" arrivalLane="B2A2_0" arrivalPos="189.60" arrivalSpeed="13.89" duration="51.00" routeLength="584.29" waitingTime="2.00" waitingCount="1" stopTime="0.00" timeLoss="7.79" rerouteNo="0" devices="tripinfo_78" vType="DEFAULT_VEHTYPE" speedFactor="1.00" vaporized=""/>