<?xml version="1.0" encoding="UTF-8"?>

<!-- generated on 2026-07-09 05:44:38 by Eclipse SUMO sumo Version 1.20.0
<configuration xmlns:xsi="http://www.w3.org/2001/XMLSchema-instance" xsi:noNamespaceSchemaLocation="http://sumo.dlr.de/xsd/sumoConfiguration.xsd">

    <input>
        <net-file value="net.net.xml"/>
        <route-files value="rou.rou.xml"/>
    </input>

    <output>
        <precision value="6"/>
        <fcd-output value="golden.fcd.xml"/>
        <fcd-output.acceleration value="true"/>
        <save-state.times value="1"/>
        <save-state.files value="golden.state.xml"/>
    </output>

    <time>
        <begin value="0"/>
        <end value="60"/>
        <step-length value="1"/>
    </time>

    <processing>
        <step-method.ballistic value="false"/>
        <collision.action value="none"/>
        <time-to-teleport value="-1"/>
        <lanechange.duration value="0"/>
        <default.action-step-length value="1"/>
        <default.speeddev value="0"/>
    </processing>

    <report>
        <no-step-log value="true"/>
    </report>

    <random_number>
        <seed value="42"/>
    </random_number>

</configuration>
-->

<fcd-export xmlns:xsi="http://www.w3.org/2001/XMLSchema-instance" xsi:noNamespaceSchemaLocation="http://sumo.dlr.de/xsd/fcd_file.xsd">
    <timestep time="0.000">
        <vehicle id="v0" x="0.000000" y="195.200000" angle="90.000000" type="car" speed="13.890000" pos="0.000000" lane="E0_0" slope="0.000000" acceleration="0.000000"/>
    </timestep>
    <timestep time="1.000">
        <vehicle id="v0" x="13.890000" y="195.200000" angle="90.000000" type="car" speed="13.890000" pos="13.890000" lane="E0_0" slope="0.000000" acceleration="0.000000"/>
    </timestep>
    <timestep time="2.000">
        <vehicle id="v0" x="27.780000" y="195.200000" angle="90.000000" type="car" speed="13.890000" pos="27.780000" lane="E0_0" slope="0.000000" acceleration="0.000000"/>
    </timestep>
    <timestep time="3.000">
        <vehicle id="v0" x="41.670000" y="195.200000" angle="90.000000" type="car" speed="13.890000" pos="41.670000" lane="E0_0" slope="0.000000" acceleration="0.000000"/>
    </timestep>
    <timestep time="4.000">
        <vehicle id="v0" x="55.560000" y="195.200000" angle="90.000000" type="car" speed="13.890000" pos="55.560000" lane="E0_0" slope="0.000000" acceleration="0.000000"/>
    </timestep>
    <timestep time="5.000">
        <vehicle id="v0" x="69.450000" y="195.200000" angle="90.000000" type="car" speed="13.890000" pos="69.450000" lane="E0_0" slope="0.000000" acceleration="0.000000"/>
    </timestep>
    <timestep time="6.000">
        <vehicle id="v0" x="83.340000" y="195.200000" angle="90.000000" type="car" speed="13.890000" pos="83.340000" lane="E0_0" slope="0.000000" acceleration="0.000000"/>
    </timestep>
    <timestep time="7.000">
        <vehicle id="v0" x="97.230000" y="195.200000" angle="90.000000" type="car" speed="13.890000" pos="97.230000" lane="E0_0" slope="0.000000" acceleration="0.000000"/>
    </timestep>
    <timestep time="8.000">
        <vehicle id="v0" x="111.120000" y="195.200000" angle="90.000000" type="car" speed="13.890000" pos="111.120000" lane="E0_0" slope="0.000000" acceleration="0.000000"/>
    </timestep>
    <timestep time="9.000">
        <vehicle id="v0" x="125.010000" y="195.200000" angle="90.000000" type="car" speed="13.890000" pos="125.010000" lane="E0_0" slope="0.000000" acceleration="0.000000"/>
    </timestep>
    <timestep time="10.000">
        <vehicle id="v0" x="138.900000" y="195.200000" angle="90.000000" type="car" speed="13.890000" pos="138.900000" lane="E0_0" slope="0.000000" acceleration="0.000000"/>
    </timestep>
    <timestep time="11.000">
        <vehicle id="v0" x="152.790000" y="195.200000" angle="90.000000" type="car" speed="13.890000" pos="152.790000" lane="E0_0" slope="0.000000" acceleration="0.000000"/>
    </timestep>
    <timestep time="12.000">
        <vehicle id="v0" x="166.680000" y="195.200000" angle="90.000000" type="car" speed="13.890000" pos="166.680000" lane="E0_0" slope="0.000000" acceleration="0.000000"/>
    </timestep>
    <timestep time="13.000">
        <vehicle id="v0" x="180.570000" y="195.200000" angle="90.000000" type="car" speed="13.890000" pos="180.570000" lane="E0_0" slope="0.000000" acceleration="0.000000"/>
    </timestep>
    <timestep time="14.000">
        <vehicle id="v0" x="194.460000" y="195.200000" angle="90.000000" type="car" speed="13.890000" pos="4.860000" lane=":J_0_0" slope="0.000000" acceleration="0.000000"/>
    </timestep>
    <timestep time="15.000">
        <vehicle id="v0" x="208.350000" y="198.400000" angle="57.380757" type="car" speed="13.890000" pos="4.350000" lane="E1_1" slope="0.000000" acceleration="0.000000"/>
    </timestep>
    <timestep time="16.000">
        <vehicle id="v0" x="222.240000" y="198.400000" angle="90.000000" type="car" speed="13.890000" pos="18.240000" lane="E1_1" slope="0.000000" acceleration="0.000000"/>
    </timestep>
    <timestep time="17.000">
        <vehicle id="v0" x="236.130000" y="198.400000" angle="90.000000" type="car" speed="13.890000" pos="32.130000" lane="E1_1" slope="0.000000" acceleration="0.000000"/>
    </timestep>
    <timestep time="18.000">
        <vehicle id="v0" x="250.020000" y="198.400000" angle="90.000000" type="car" speed="13.890000" pos="46.020000" lane="E1_1" slope="0.000000" acceleration="0.000000"/>
    </timestep>
    <timestep time="19.000">
        <vehicle id="v0" x="263.910000" y="198.400000" angle="90.000000" type="car" speed="13.890000" pos="59.910000" lane="E1_1" slope="0.000000" acceleration="0.000000"/>
    </timestep>
    <timestep time="20.000">
        <vehicle id="v0" x="277.800000" y="198.400000" angle="90.000000" type="car" speed="13.890000" pos="73.800000" lane="E1_1" slope="0.000000" acceleration="0.000000"/>
    </timestep>
    <timestep time="21.000">
        <vehicle id="v0" x="291.690000" y="198.400000" angle="90.000000" type="car" speed="13.890000" pos="87.690000" lane="E1_1" slope="0.000000" acceleration="0.000000"/>
    </timestep>
    <timestep time="22.000">
        <vehicle id="v0" x="305.580000" y="198.400000" angle="90.000000" type="car" speed="13.890000" pos="101.580000" lane="E1_1" slope="0.000000" acceleration="0.000000"/>
    </timestep>
    <timestep time="23.000">
        <vehicle id="v0" x="319.470000" y="198.400000" angle="90.000000" type="car" speed="13.890000" pos="115.470000" lane="E1_1" slope="0.000000" acceleration="0.000000"/>
    </timestep>
    <timestep time="24.000">
        <vehicle id="v0" x="333.360000" y="198.400000" angle="90.000000" type="car" speed="13.890000" pos="129.360000" lane="E1_1" slope="0.000000" acceleration="0.000000"/>
    </timestep>
    <timestep time="25.000">
        <vehicle id="v0" x="347.250000" y="198.400000" angle="90.000000" type="car" speed="13.890000" pos="143.250000" lane="E1_1" slope="0.000000" acceleration="0.000000"/>
    </timestep>
    <timestep time="26.000">
        <vehicle id="v0" x="361.140000" y="198.400000" angle="90.000000" type="car" speed="13.890000" pos="157.140000" lane="E1_1" slope="0.000000" acceleration="0.000000"/>
    </timestep>
    <timestep time="27.000">
        <vehicle id="v0" x="375.030000" y="198.400000" angle="90.000000" type="car" speed="13.890000" pos="171.030000" lane="E1_1" slope="0.000000" acceleration="0.000000"/>
    </timestep>
    <timestep time="28.000">
        <vehicle id="v0" x="388.920000" y="198.400000" angle="90.000000" type="car" speed="13.890000" pos="184.920000" lane="E1_1" slope="0.000000" acceleration="0.000000"/>
    </timestep>
    <timestep time="29.000">
        <vehicle id="v0" x="402.810000" y="198.400000" angle="90.000000" type="car" speed="13.890000" pos="10.010000" lane=":K_1_0" slope="0.000000" acceleration="0.000000"/>
    </timestep>
    <timestep time="30.000">
        <vehicle id="v0" x="416.700000" y="198.400000" angle="90.000000" type="car" speed="13.890000" pos="12.700000" lane="E2_0" slope="0.000000" acceleration="0.000000"/>
    </timestep>
    <timestep time="31.000">
        <vehicle id="v0" x="430.590000" y="198.400000" angle="90.000000" type="car" speed="13.890000" pos="26.590000" lane="E2_0" slope="0.000000" acceleration="0.000000"/>
    </timestep>
    <timestep time="32.000">
        <vehicle id="v0" x="444.480000" y="198.400000" angle="90.000000" type="car" speed="13.890000" pos="40.480000" lane="E2_0" slope="0.000000" acceleration="0.000000"/>
    </timestep>
    <timestep time="33.000">
        <vehicle id="v0" x="458.370000" y="198.400000" angle="90.000000" type="car" speed="13.890000" pos="54.370000" lane="E2_0" slope="0.000000" acceleration="0.000000"/>
    </timestep>
    <timestep time="34.000">
        <vehicle id="v0" x="472.260000" y="198.400000" angle="90.000000" type="car" speed="13.890000" pos="68.260000" lane="E2_0" slope="0.000000" acceleration="0.000000"/>
    </timestep>
    <timestep time="35.000">
        <vehicle id="v0" x="486.150000" y="198.400000" angle="90.000000" type="car" speed="13.890000" pos="82.150000" lane="E2_0" slope="0.000000" acceleration="0.000000"/>
    </timestep>
    <timestep time="36.000">
        <vehicle id="v0" x="500.040000" y="198.400000" angle="90.000000" type="car" speed="13.890000" pos="96.040000" lane="E2_0" slope="0.000000" acceleration="0.000000"/>
    </timestep>
    <timestep time="37.000">
        <vehicle id="v0" x="513.930000" y="198.400000" angle="90.000000" type="car" speed="13.890000" pos="109.930000" lane="E2_0" slope="0.000000" acceleration="0.000000"/>
    </timestep>
    <timestep time="38.000">
        <vehicle id="v0" x="527.820000" y="198.400000" angle="90.000000" type="car" speed="13.890000" pos="123.820000" lane="E2_0" slope="0.000000" acceleration="0.000000"/>
    </timestep>
    <timestep time="39.000">
        <vehicle id="v0" x="541.710000" y="198.400000" angle="90.000000" type="car" speed="13.890000" pos="137.710000" lane="E2_0" slope="0.000000" acceleration="0.000000"/>
    </timestep>
    <timestep time="40.000">
        <vehicle id="v0" x="555.600000" y="198.400000" angle="90.000000" type="car" speed="13.890000" pos="151.600000" lane="E2_0" slope="0.000000" acceleration="0.000000"/>
    </timestep>
    <timestep time="41.000">
        <vehicle id="v0" x="569.490000" y="198.400000" angle="90.000000" type="car" speed="13.890000" pos="165.490000" lane="E2_0" slope="0.000000" acceleration="0.000000"/>
    </timestep>
    <timestep time="42.000">
        <vehicle id="v0" x="583.380000" y="198.400000" angle="90.000000" type="car" speed="13.890000" pos="179.380000" lane="E2_0" slope="0.000000" acceleration="0.000000"/>
    </timestep>
    <timestep time="43.000">
        <vehicle id="v0" x="597.270000" y="198.400000" angle="90.000000" type="car" speed="13.890000" pos="193.270000" lane="E2_0" slope="0.000000" acceleration="0.000000"/>
    </timestep>
    <timestep time="44.000"/>
    <timestep time="45.000"/>
    <timestep time="46.000"/>
    <timestep time="47.000"/>
    <timestep time="48.000"/>
    <timestep time="49.000"/>
    <timestep time="50.000"/>
    <timestep time="51.000"/>
    <timestep time="52.000"/>
    <timestep time="53.000"/>
    <timestep time="54.000"/>
    <timestep time="55.000"/>
    <timestep time="56.000"/>
    <timestep time="57.000"/>
    <timestep time="58.000"/>
    <timestep time="59.000"/>
</fcd-export>
