<?xml version="1.0" encoding="UTF-8"?>

<!-- generated on 2026-07-08 14:13:52 by Eclipse SUMO sumo Version 1.20.0
<configuration xmlns:xsi="http://www.w3.org/2001/XMLSchema-instance" xsi:noNamespaceSchemaLocation="http://sumo.dlr.de/xsd/sumoConfiguration.xsd">

    <input>
        <net-file value="net.net.xml"/>
        <route-files value="rou.rou.xml"/>
    </input>

    <output>
        <precision value="6"/>
        <fcd-output value="golden.fcd.xml"/>
        <fcd-output.acceleration value="true"/>
        <save-state.times value="1"/>
        <save-state.files value="golden.state.xml"/>
    </output>

    <time>
        <begin value="0"/>
        <end value="50"/>
        <step-length value="1"/>
    </time>

    <processing>
        <step-method.ballistic value="false"/>
        <collision.action value="none"/>
        <time-to-teleport value="-1"/>
        <lanechange.duration value="0"/>
        <default.action-step-length value="1"/>
        <default.speeddev value="0"/>
    </processing>

    <report>
        <no-step-log value="true"/>
    </report>

    <random_number>
        <seed value="42"/>
    </random_number>

</configuration>
-->

<fcd-export xmlns:xsi="http://www.w3.org/2001/XMLSchema-instance" xsi:noNamespaceSchemaLocation="http://sumo.dlr.de/xsd/fcd_file.xsd">
    <timestep time="0.000">
        <vehicle id="v0" x="0.000000" y="-4.800000" angle="90.000000" type="car" speed="13.890000" pos="0.000000" lane="E0_0" slope="0.000000" acceleration="0.000000"/>
    </timestep>
    <timestep time="1.000">
        <vehicle id="v0" x="13.890000" y="-4.800000" angle="90.000000" type="car" speed="13.890000" pos="13.890000" lane="E0_0" slope="0.000000" acceleration="0.000000"/>
    </timestep>
    <timestep time="2.000">
        <vehicle id="v0" x="27.780000" y="-4.800000" angle="90.000000" type="car" speed="13.890000" pos="27.780000" lane="E0_0" slope="0.000000" acceleration="0.000000"/>
    </timestep>
    <timestep time="3.000">
        <vehicle id="v0" x="41.670000" y="-4.800000" angle="90.000000" type="car" speed="13.890000" pos="41.670000" lane="E0_0" slope="0.000000" acceleration="0.000000"/>
    </timestep>
    <timestep time="4.000">
        <vehicle id="v0" x="55.560000" y="-4.800000" angle="90.000000" type="car" speed="13.890000" pos="55.560000" lane="E0_0" slope="0.000000" acceleration="0.000000"/>
    </timestep>
    <timestep time="5.000">
        <vehicle id="v0" x="69.450000" y="-4.800000" angle="90.000000" type="car" speed="13.890000" pos="69.450000" lane="E0_0" slope="0.000000" acceleration="0.000000"/>
    </timestep>
    <timestep time="6.000">
        <vehicle id="v0" x="83.340000" y="-4.800000" angle="90.000000" type="car" speed="13.890000" pos="83.340000" lane="E0_0" slope="0.000000" acceleration="0.000000"/>
    </timestep>
    <timestep time="7.000">
        <vehicle id="v0" x="97.230000" y="-4.800000" angle="90.000000" type="car" speed="13.890000" pos="97.230000" lane="E0_0" slope="0.000000" acceleration="0.000000"/>
    </timestep>
    <timestep time="8.000">
        <vehicle id="v0" x="111.120000" y="-1.600000" angle="90.000000" type="car" speed="13.890000" pos="111.120000" lane="E0_1" slope="0.000000" acceleration="0.000000"/>
    </timestep>
    <timestep time="9.000">
        <vehicle id="v0" x="125.010000" y="-1.600000" angle="90.000000" type="car" speed="13.890000" pos="125.010000" lane="E0_1" slope="0.000000" acceleration="0.000000"/>
    </timestep>
    <timestep time="10.000">
        <vehicle id="v0" x="138.900000" y="-1.600000" angle="90.000000" type="car" speed="13.890000" pos="138.900000" lane="E0_1" slope="0.000000" acceleration="0.000000"/>
    </timestep>
    <timestep time="11.000">
        <vehicle id="v0" x="152.790000" y="-1.600000" angle="90.000000" type="car" speed="13.890000" pos="152.790000" lane="E0_1" slope="0.000000" acceleration="0.000000"/>
    </timestep>
    <timestep time="12.000">
        <vehicle id="v0" x="166.680000" y="-1.600000" angle="90.000000" type="car" speed="13.890000" pos="166.680000" lane="E0_1" slope="0.000000" acceleration="0.000000"/>
    </timestep>
    <timestep time="13.000">
        <vehicle id="v0" x="180.570000" y="-1.600000" angle="90.000000" type="car" speed="13.890000" pos="180.570000" lane="E0_1" slope="0.000000" acceleration="0.000000"/>
    </timestep>
    <timestep time="14.000">
        <vehicle id="v0" x="194.460000" y="-1.600000" angle="90.000000" type="car" speed="13.890000" pos="194.460000" lane="E0_1" slope="0.000000" acceleration="0.000000"/>
    </timestep>
    <timestep time="15.000">
        <vehicle id="v0" x="208.250000" y="-1.600000" angle="90.000000" type="car" speed="13.890000" pos="8.250000" lane="E1_1" slope="0.000000" acceleration="0.000000"/>
    </timestep>
    <timestep time="16.000">
        <vehicle id="v0" x="222.140000" y="-1.600000" angle="90.000000" type="car" speed="13.890000" pos="22.140000" lane="E1_1" slope="0.000000" acceleration="0.000000"/>
    </timestep>
    <timestep time="17.000">
        <vehicle id="v0" x="236.030000" y="-1.600000" angle="90.000000" type="car" speed="13.890000" pos="36.030000" lane="E1_1" slope="0.000000" acceleration="0.000000"/>
    </timestep>
    <timestep time="18.000">
        <vehicle id="v0" x="249.920000" y="-1.600000" angle="90.000000" type="car" speed="13.890000" pos="49.920000" lane="E1_1" slope="0.000000" acceleration="0.000000"/>
    </timestep>
    <timestep time="19.000">
        <vehicle id="v0" x="263.810000" y="-1.600000" angle="90.000000" type="car" speed="13.890000" pos="63.810000" lane="E1_1" slope="0.000000" acceleration="0.000000"/>
    </timestep>
    <timestep time="20.000">
        <vehicle id="v0" x="277.700000" y="-1.600000" angle="90.000000" type="car" speed="13.890000" pos="77.700000" lane="E1_1" slope="0.000000" acceleration="0.000000"/>
    </timestep>
    <timestep time="21.000">
        <vehicle id="v0" x="291.590000" y="-1.600000" angle="90.000000" type="car" speed="13.890000" pos="91.590000" lane="E1_1" slope="0.000000" acceleration="0.000000"/>
    </timestep>
    <timestep time="22.000">
        <vehicle id="v0" x="305.480000" y="-1.600000" angle="90.000000" type="car" speed="13.890000" pos="105.480000" lane="E1_1" slope="0.000000" acceleration="0.000000"/>
    </timestep>
    <timestep time="23.000">
        <vehicle id="v0" x="319.370000" y="-1.600000" angle="90.000000" type="car" speed="13.890000" pos="119.370000" lane="E1_1" slope="0.000000" acceleration="0.000000"/>
    </timestep>
    <timestep time="24.000">
        <vehicle id="v0" x="333.260000" y="-1.600000" angle="90.000000" type="car" speed="13.890000" pos="133.260000" lane="E1_1" slope="0.000000" acceleration="0.000000"/>
    </timestep>
    <timestep time="25.000">
        <vehicle id="v0" x="347.150000" y="-1.600000" angle="90.000000" type="car" speed="13.890000" pos="147.150000" lane="E1_1" slope="0.000000" acceleration="0.000000"/>
    </timestep>
    <timestep time="26.000">
        <vehicle id="v0" x="361.040000" y="-1.600000" angle="90.000000" type="car" speed="13.890000" pos="161.040000" lane="E1_1" slope="0.000000" acceleration="0.000000"/>
    </timestep>
    <timestep time="27.000">
        <vehicle id="v0" x="374.930000" y="-1.600000" angle="90.000000" type="car" speed="13.890000" pos="174.930000" lane="E1_1" slope="0.000000" acceleration="0.000000"/>
    </timestep>
    <timestep time="28.000">
        <vehicle id="v0" x="388.820000" y="-1.600000" angle="90.000000" type="car" speed="13.890000" pos="188.820000" lane="E1_1" slope="0.000000" acceleration="0.000000"/>
    </timestep>
    <timestep time="29.000">
        <vehicle id="v0" x="401.110000" y="-4.800000" angle="133.264295" type="car" speed="13.890000" pos="1.110000" lane="E2_0" slope="0.000000" acceleration="0.000000"/>
    </timestep>
    <timestep time="30.000">
        <vehicle id="v0" x="415.000000" y="-4.800000" angle="90.000000" type="car" speed="13.890000" pos="15.000000" lane="E2_0" slope="0.000000" acceleration="0.000000"/>
    </timestep>
    <timestep time="31.000">
        <vehicle id="v0" x="428.890000" y="-4.800000" angle="90.000000" type="car" speed="13.890000" pos="28.890000" lane="E2_0" slope="0.000000" acceleration="0.000000"/>
    </timestep>
    <timestep time="32.000">
        <vehicle id="v0" x="442.780000" y="-4.800000" angle="90.000000" type="car" speed="13.890000" pos="42.780000" lane="E2_0" slope="0.000000" acceleration="0.000000"/>
    </timestep>
    <timestep time="33.000">
        <vehicle id="v0" x="456.670000" y="-4.800000" angle="90.000000" type="car" speed="13.890000" pos="56.670000" lane="E2_0" slope="0.000000" acceleration="0.000000"/>
    </timestep>
    <timestep time="34.000">
        <vehicle id="v0" x="470.560000" y="-4.800000" angle="90.000000" type="car" speed="13.890000" pos="70.560000" lane="E2_0" slope="0.000000" acceleration="0.000000"/>
    </timestep>
    <timestep time="35.000">
        <vehicle id="v0" x="484.450000" y="-4.800000" angle="90.000000" type="car" speed="13.890000" pos="84.450000" lane="E2_0" slope="0.000000" acceleration="0.000000"/>
    </timestep>
    <timestep time="36.000">
        <vehicle id="v0" x="498.340000" y="-4.800000" angle="90.000000" type="car" speed="13.890000" pos="98.340000" lane="E2_0" slope="0.000000" acceleration="0.000000"/>
    </timestep>
    <timestep time="37.000">
        <vehicle id="v0" x="512.230000" y="-4.800000" angle="90.000000" type="car" speed="13.890000" pos="112.230000" lane="E2_0" slope="0.000000" acceleration="0.000000"/>
    </timestep>
    <timestep time="38.000">
        <vehicle id="v0" x="526.120000" y="-4.800000" angle="90.000000" type="car" speed="13.890000" pos="126.120000" lane="E2_0" slope="0.000000" acceleration="0.000000"/>
    </timestep>
    <timestep time="39.000">
        <vehicle id="v0" x="540.010000" y="-4.800000" angle="90.000000" type="car" speed="13.890000" pos="140.010000" lane="E2_0" slope="0.000000" acceleration="0.000000"/>
    </timestep>
    <timestep time="40.000">
        <vehicle id="v0" x="553.900000" y="-4.800000" angle="90.000000" type="car" speed="13.890000" pos="153.900000" lane="E2_0" slope="0.000000" acceleration="0.000000"/>
    </timestep>
    <timestep time="41.000">
        <vehicle id="v0" x="567.790000" y="-4.800000" angle="90.000000" type="car" speed="13.890000" pos="167.790000" lane="E2_0" slope="0.000000" acceleration="0.000000"/>
    </timestep>
    <timestep time="42.000">
        <vehicle id="v0" x="581.680000" y="-4.800000" angle="90.000000" type="car" speed="13.890000" pos="181.680000" lane="E2_0" slope="0.000000" acceleration="0.000000"/>
    </timestep>
    <timestep time="43.000">
        <vehicle id="v0" x="595.570000" y="-4.800000" angle="90.000000" type="car" speed="13.890000" pos="195.570000" lane="E2_0" slope="0.000000" acceleration="0.000000"/>
    </timestep>
    <timestep time="44.000"/>
    <timestep time="45.000"/>
    <timestep time="46.000"/>
    <timestep time="47.000"/>
    <timestep time="48.000"/>
    <timestep time="49.000"/>
</fcd-export>
