<?xml version="1.0" encoding="UTF-8"?>

<!-- generated on 2026-07-08 08:01:13 by Eclipse SUMO sumo Version 1.20.0
<configuration xmlns:xsi="http://www.w3.org/2001/XMLSchema-instance" xsi:noNamespaceSchemaLocation="http://sumo.dlr.de/xsd/sumoConfiguration.xsd">

    <input>
        <net-file value="net.net.xml"/>
        <route-files value="rou.rou.xml"/>
    </input>

    <output>
        <precision value="6"/>
        <fcd-output value="golden.fcd.xml"/>
        <fcd-output.acceleration value="true"/>
        <save-state.times value="1"/>
        <save-state.files value="golden.state.xml"/>
    </output>

    <time>
        <begin value="0"/>
        <end value="60"/>
        <step-length value="1"/>
    </time>

    <processing>
        <step-method.ballistic value="false"/>
        <collision.action value="none"/>
        <time-to-teleport value="-1"/>
        <lanechange.duration value="0"/>
        <default.action-step-length value="1"/>
        <default.speeddev value="0"/>
    </processing>

    <report>
        <no-step-log value="true"/>
    </report>

    <random_number>
        <seed value="42"/>
    </random_number>

</configuration>
-->

<fcd-export xmlns:xsi="http://www.w3.org/2001/XMLSchema-instance" xsi:noNamespaceSchemaLocation="http://sumo.dlr.de/xsd/fcd_file.xsd">
    <timestep time="0.000">
        <vehicle id="vSouth" x="201.600000" y="0.000000" angle="0.000000" type="car" speed="13.890000" pos="0.000000" lane="SJ_0" slope="0.000000" acceleration="0.000000"/>
        <vehicle id="vWest" x="0.000000" y="198.400000" angle="90.000000" type="car" speed="13.890000" pos="0.000000" lane="WJ_0" slope="0.000000" acceleration="0.000000"/>
    </timestep>
    <timestep time="1.000">
        <vehicle id="vSouth" x="201.600000" y="13.890000" angle="0.000000" type="car" speed="13.890000" pos="13.890000" lane="SJ_0" slope="0.000000" acceleration="0.000000"/>
        <vehicle id="vWest" x="13.890000" y="198.400000" angle="90.000000" type="car" speed="13.890000" pos="13.890000" lane="WJ_0" slope="0.000000" acceleration="0.000000"/>
    </timestep>
    <timestep time="2.000">
        <vehicle id="vSouth" x="201.600000" y="27.780000" angle="0.000000" type="car" speed="13.890000" pos="27.780000" lane="SJ_0" slope="0.000000" acceleration="0.000000"/>
        <vehicle id="vWest" x="27.780000" y="198.400000" angle="90.000000" type="car" speed="13.890000" pos="27.780000" lane="WJ_0" slope="0.000000" acceleration="0.000000"/>
    </timestep>
    <timestep time="3.000">
        <vehicle id="vSouth" x="201.600000" y="41.670000" angle="0.000000" type="car" speed="13.890000" pos="41.670000" lane="SJ_0" slope="0.000000" acceleration="0.000000"/>
        <vehicle id="vWest" x="41.670000" y="198.400000" angle="90.000000" type="car" speed="13.890000" pos="41.670000" lane="WJ_0" slope="0.000000" acceleration="0.000000"/>
    </timestep>
    <timestep time="4.000">
        <vehicle id="vSouth" x="201.600000" y="55.560000" angle="0.000000" type="car" speed="13.890000" pos="55.560000" lane="SJ_0" slope="0.000000" acceleration="0.000000"/>
        <vehicle id="vWest" x="55.560000" y="198.400000" angle="90.000000" type="car" speed="13.890000" pos="55.560000" lane="WJ_0" slope="0.000000" acceleration="0.000000"/>
    </timestep>
    <timestep time="5.000">
        <vehicle id="vSouth" x="201.600000" y="69.450000" angle="0.000000" type="car" speed="13.890000" pos="69.450000" lane="SJ_0" slope="0.000000" acceleration="0.000000"/>
        <vehicle id="vWest" x="69.450000" y="198.400000" angle="90.000000" type="car" speed="13.890000" pos="69.450000" lane="WJ_0" slope="0.000000" acceleration="0.000000"/>
    </timestep>
    <timestep time="6.000">
        <vehicle id="vSouth" x="201.600000" y="83.340000" angle="0.000000" type="car" speed="13.890000" pos="83.340000" lane="SJ_0" slope="0.000000" acceleration="0.000000"/>
        <vehicle id="vWest" x="83.340000" y="198.400000" angle="90.000000" type="car" speed="13.890000" pos="83.340000" lane="WJ_0" slope="0.000000" acceleration="0.000000"/>
    </timestep>
    <timestep time="7.000">
        <vehicle id="vSouth" x="201.600000" y="97.230000" angle="0.000000" type="car" speed="13.890000" pos="97.230000" lane="SJ_0" slope="0.000000" acceleration="0.000000"/>
        <vehicle id="vWest" x="97.230000" y="198.400000" angle="90.000000" type="car" speed="13.890000" pos="97.230000" lane="WJ_0" slope="0.000000" acceleration="0.000000"/>
    </timestep>
    <timestep time="8.000">
        <vehicle id="vSouth" x="201.600000" y="111.120000" angle="0.000000" type="car" speed="13.890000" pos="111.120000" lane="SJ_0" slope="0.000000" acceleration="0.000000"/>
        <vehicle id="vWest" x="111.120000" y="198.400000" angle="90.000000" type="car" speed="13.890000" pos="111.120000" lane="WJ_0" slope="0.000000" acceleration="0.000000"/>
    </timestep>
    <timestep time="9.000">
        <vehicle id="vSouth" x="201.600000" y="125.010000" angle="0.000000" type="car" speed="13.890000" pos="125.010000" lane="SJ_0" slope="0.000000" acceleration="0.000000"/>
        <vehicle id="vWest" x="125.010000" y="198.400000" angle="90.000000" type="car" speed="13.890000" pos="125.010000" lane="WJ_0" slope="0.000000" acceleration="0.000000"/>
    </timestep>
    <timestep time="10.000">
        <vehicle id="vSouth" x="201.600000" y="138.900000" angle="0.000000" type="car" speed="13.890000" pos="138.900000" lane="SJ_0" slope="0.000000" acceleration="0.000000"/>
        <vehicle id="vWest" x="138.900000" y="198.400000" angle="90.000000" type="car" speed="13.890000" pos="138.900000" lane="WJ_0" slope="0.000000" acceleration="0.000000"/>
    </timestep>
    <timestep time="11.000">
        <vehicle id="vSouth" x="201.600000" y="152.790000" angle="0.000000" type="car" speed="13.890000" pos="152.790000" lane="SJ_0" slope="0.000000" acceleration="0.000000"/>
        <vehicle id="vWest" x="152.790000" y="198.400000" angle="90.000000" type="car" speed="13.890000" pos="152.790000" lane="WJ_0" slope="0.000000" acceleration="0.000000"/>
    </timestep>
    <timestep time="12.000">
        <vehicle id="vSouth" x="201.600000" y="166.680000" angle="0.000000" type="car" speed="13.890000" pos="166.680000" lane="SJ_0" slope="0.000000" acceleration="0.000000"/>
        <vehicle id="vWest" x="166.680000" y="198.400000" angle="90.000000" type="car" speed="13.890000" pos="166.680000" lane="WJ_0" slope="0.000000" acceleration="0.000000"/>
    </timestep>
    <timestep time="13.000">
        <vehicle id="vSouth" x="201.600000" y="180.570000" angle="0.000000" type="car" speed="13.890000" pos="180.570000" lane="SJ_0" slope="0.000000" acceleration="0.000000"/>
        <vehicle id="vWest" x="180.570000" y="198.400000" angle="90.000000" type="car" speed="13.890000" pos="180.570000" lane="WJ_0" slope="0.000000" acceleration="0.000000"/>
    </timestep>
    <timestep time="14.000">
        <vehicle id="vSouth" x="201.600000" y="194.460000" angle="0.000000" type="car" speed="13.890000" pos="1.660000" lane=":J_0_0" slope="0.000000" acceleration="0.000000"/>
        <vehicle id="vWest" x="190.179667" y="198.400000" angle="90.000000" type="car" speed="9.609667" pos="190.179667" lane="WJ_0" slope="0.000000" acceleration="-4.280333"/>
    </timestep>
    <timestep time="15.000">
        <vehicle id="vSouth" x="201.600000" y="208.350000" angle="0.000000" type="car" speed="13.890000" pos="4.350000" lane="JN_0" slope="0.000000" acceleration="0.000000"/>
        <vehicle id="vWest" x="195.289333" y="198.400000" angle="90.000000" type="car" speed="5.109667" pos="195.289333" lane="WJ_0" slope="0.000000" acceleration="-4.500000"/>
    </timestep>
    <timestep time="16.000">
        <vehicle id="vSouth" x="201.600000" y="222.240000" angle="0.000000" type="car" speed="13.890000" pos="18.240000" lane="JN_0" slope="0.000000" acceleration="0.000000"/>
        <vehicle id="vWest" x="202.999000" y="198.400000" angle="90.000000" type="car" speed="7.709667" pos="6.999000" lane=":J_1_0" slope="0.000000" acceleration="2.600000"/>
    </timestep>
    <timestep time="17.000">
        <vehicle id="vSouth" x="201.600000" y="236.130000" angle="0.000000" type="car" speed="13.890000" pos="32.130000" lane="JN_0" slope="0.000000" acceleration="0.000000"/>
        <vehicle id="vWest" x="213.308667" y="198.400000" angle="90.000000" type="car" speed="10.309667" pos="6.108667" lane="JE_0" slope="0.000000" acceleration="2.600000"/>
    </timestep>
    <timestep time="18.000">
        <vehicle id="vSouth" x="201.600000" y="250.020000" angle="0.000000" type="car" speed="13.890000" pos="46.020000" lane="JN_0" slope="0.000000" acceleration="0.000000"/>
        <vehicle id="vWest" x="226.218333" y="198.400000" angle="90.000000" type="car" speed="12.909667" pos="19.018333" lane="JE_0" slope="0.000000" acceleration="2.600000"/>
    </timestep>
    <timestep time="19.000">
        <vehicle id="vSouth" x="201.600000" y="263.910000" angle="0.000000" type="car" speed="13.890000" pos="59.910000" lane="JN_0" slope="0.000000" acceleration="0.000000"/>
        <vehicle id="vWest" x="240.108333" y="198.400000" angle="90.000000" type="car" speed="13.890000" pos="32.908333" lane="JE_0" slope="0.000000" acceleration="0.980333"/>
    </timestep>
    <timestep time="20.000">
        <vehicle id="vSouth" x="201.600000" y="277.800000" angle="0.000000" type="car" speed="13.890000" pos="73.800000" lane="JN_0" slope="0.000000" acceleration="0.000000"/>
        <vehicle id="vWest" x="253.998333" y="198.400000" angle="90.000000" type="car" speed="13.890000" pos="46.798333" lane="JE_0" slope="0.000000" acceleration="0.000000"/>
    </timestep>
    <timestep time="21.000">
        <vehicle id="vSouth" x="201.600000" y="291.690000" angle="0.000000" type="car" speed="13.890000" pos="87.690000" lane="JN_0" slope="0.000000" acceleration="0.000000"/>
        <vehicle id="vWest" x="267.888333" y="198.400000" angle="90.000000" type="car" speed="13.890000" pos="60.688333" lane="JE_0" slope="0.000000" acceleration="0.000000"/>
    </timestep>
    <timestep time="22.000">
        <vehicle id="vSouth" x="201.600000" y="305.580000" angle="0.000000" type="car" speed="13.890000" pos="101.580000" lane="JN_0" slope="0.000000" acceleration="0.000000"/>
        <vehicle id="vWest" x="281.778333" y="198.400000" angle="90.000000" type="car" speed="13.890000" pos="74.578333" lane="JE_0" slope="0.000000" acceleration="0.000000"/>
    </timestep>
    <timestep time="23.000">
        <vehicle id="vSouth" x="201.600000" y="319.470000" angle="0.000000" type="car" speed="13.890000" pos="115.470000" lane="JN_0" slope="0.000000" acceleration="0.000000"/>
        <vehicle id="vWest" x="295.668333" y="198.400000" angle="90.000000" type="car" speed="13.890000" pos="88.468333" lane="JE_0" slope="0.000000" acceleration="0.000000"/>
    </timestep>
    <timestep time="24.000">
        <vehicle id="vSouth" x="201.600000" y="333.360000" angle="0.000000" type="car" speed="13.890000" pos="129.360000" lane="JN_0" slope="0.000000" acceleration="0.000000"/>
        <vehicle id="vWest" x="309.558333" y="198.400000" angle="90.000000" type="car" speed="13.890000" pos="102.358333" lane="JE_0" slope="0.000000" acceleration="0.000000"/>
    </timestep>
    <timestep time="25.000">
        <vehicle id="vSouth" x="201.600000" y="347.250000" angle="0.000000" type="car" speed="13.890000" pos="143.250000" lane="JN_0" slope="0.000000" acceleration="0.000000"/>
        <vehicle id="vWest" x="323.448333" y="198.400000" angle="90.000000" type="car" speed="13.890000" pos="116.248333" lane="JE_0" slope="0.000000" acceleration="0.000000"/>
    </timestep>
    <timestep time="26.000">
        <vehicle id="vSouth" x="201.600000" y="361.140000" angle="0.000000" type="car" speed="13.890000" pos="157.140000" lane="JN_0" slope="0.000000" acceleration="0.000000"/>
        <vehicle id="vWest" x="337.338333" y="198.400000" angle="90.000000" type="car" speed="13.890000" pos="130.138333" lane="JE_0" slope="0.000000" acceleration="0.000000"/>
    </timestep>
    <timestep time="27.000">
        <vehicle id="vSouth" x="201.600000" y="375.030000" angle="0.000000" type="car" speed="13.890000" pos="171.030000" lane="JN_0" slope="0.000000" acceleration="0.000000"/>
        <vehicle id="vWest" x="351.228333" y="198.400000" angle="90.000000" type="car" speed="13.890000" pos="144.028333" lane="JE_0" slope="0.000000" acceleration="0.000000"/>
    </timestep>
    <timestep time="28.000">
        <vehicle id="vSouth" x="201.600000" y="388.920000" angle="0.000000" type="car" speed="13.890000" pos="184.920000" lane="JN_0" slope="0.000000" acceleration="0.000000"/>
        <vehicle id="vWest" x="365.118333" y="198.400000" angle="90.000000" type="car" speed="13.890000" pos="157.918333" lane="JE_0" slope="0.000000" acceleration="0.000000"/>
    </timestep>
    <timestep time="29.000">
        <vehicle id="vWest" x="379.008333" y="198.400000" angle="90.000000" type="car" speed="13.890000" pos="171.808333" lane="JE_0" slope="0.000000" acceleration="0.000000"/>
    </timestep>
    <timestep time="30.000">
        <vehicle id="vWest" x="392.898333" y="198.400000" angle="90.000000" type="car" speed="13.890000" pos="185.698333" lane="JE_0" slope="0.000000" acceleration="0.000000"/>
    </timestep>
    <timestep time="31.000"/>
    <timestep time="32.000"/>
    <timestep time="33.000"/>
    <timestep time="34.000"/>
    <timestep time="35.000"/>
    <timestep time="36.000"/>
    <timestep time="37.000"/>
    <timestep time="38.000"/>
    <timestep time="39.000"/>
    <timestep time="40.000"/>
    <timestep time="41.000"/>
    <timestep time="42.000"/>
    <timestep time="43.000"/>
    <timestep time="44.000"/>
    <timestep time="45.000"/>
    <timestep time="46.000"/>
    <timestep time="47.000"/>
    <timestep time="48.000"/>
    <timestep time="49.000"/>
    <timestep time="50.000"/>
    <timestep time="51.000"/>
    <timestep time="52.000"/>
    <timestep time="53.000"/>
    <timestep time="54.000"/>
    <timestep time="55.000"/>
    <timestep time="56.000"/>
    <timestep time="57.000"/>
    <timestep time="58.000"/>
    <timestep time="59.000"/>
</fcd-export>
